 Gaussian 09, Revision D.01,
 Gaussian 09:  EM64L-G09RevD.01 24-Apr-2013

 ----------------------------------------------------------------------
 #P M062X/6-31+G** EmpiricalDispersion=GD3 SCRF(SMD,solvent=DiMethylSul
 foxide) Opt Freq
 ----------------------------------------------------------------------

 --------
 872-36-6
 --------
 Symbolic Z-matrix:
 Charge =  1 Multiplicity = 1

 SCF Done:  E(RM062X) =  -348.475866230     A.U. after   12 cycles
 SCF Done:  E(RM062X) =  -348.481916411     A.U. after   11 cycles
 SCF Done:  E(RM062X) =  -348.483465086     A.U. after   11 cycles
 SCF Done:  E(RM062X) =  -348.484053982     A.U. after   10 cycles
 SCF Done:  E(RM062X) =  -348.484892272     A.U. after   11 cycles
 SCF Done:  E(RM062X) =  -348.486205989     A.U. after   10 cycles
 SCF Done:  E(RM062X) =  -348.486804569     A.U. after   11 cycles
 SCF Done:  E(RM062X) =  -348.488545967     A.U. after   11 cycles
 SCF Done:  E(RM062X) =  -348.484500189     A.U. after   12 cycles
 SCF Done:  E(RM062X) =  -348.488975041     A.U. after   10 cycles
 SCF Done:  E(RM062X) =  -348.488693625     A.U. after   11 cycles
 SCF Done:  E(RM062X) =  -348.488579024     A.U. after   11 cycles
 SCF Done:  E(RM062X) =  -348.489202049     A.U. after    2 cycles
 SCF Done:  E(RM062X) =  -348.489313178     A.U. after   10 cycles
 SCF Done:  E(RM062X) =  -348.489381780     A.U. after   10 cycles
 SCF Done:  E(RM062X) =  -348.489301694     A.U. after   10 cycles
 SCF Done:  E(RM062X) =  -348.489418951     A.U. after   10 cycles
 SCF Done:  E(RM062X) =  -348.489419022     A.U. after    8 cycles
 SCF Done:  E(RM062X) =  -348.489419371     A.U. after    7 cycles
 Optimization completed.
    -- Stationary point found.
 Normal termination of Gaussian 09 at Mon May 16 17:16:10 2022.

 ----------------------------------------------------------------------
 #P Geom=AllCheck Guess=TCheck SCRF=Check GenChk RM062X/6-31+G(d,p) Fre
 q
 ----------------------------------------------------------------------

 Structure from the checkpoint file:  "/gpfs/data/yqi27/cgu13/CHEM1560Q/Gaussian/872-36-6/inp3/Gau-230693.chk"
 --------
 872-36-6
 --------
 Charge =  1 Multiplicity = 1

                         Standard orientation:
 ---------------------------------------------------------------------
 Center     Atomic      Atomic             Coordinates (Angstroms)
 Number     Number       Type             X           Y           Z
 ---------------------------------------------------------------------
      1          8           0        2.101919    0.000138    0.376693
      2          6           0        0.945178    0.000060    0.074874
      3          8           0        0.178202   -1.098172   -0.121844
      4          6           0       -1.093507   -0.667056   -0.444310
      5          6           0       -1.093595    0.666732   -0.444553
      6          8           0        0.178057    1.098122   -0.122064
      7          1           0       -1.838784   -1.412422   -0.679713
      8          1           0       -1.838858    1.411948   -0.680498
      9          3           0       -2.845413    0.000452    1.727289
 ---------------------------------------------------------------------

 SCF Done:  E(RM062X) =  -348.489419371     A.U. after    1 cycles

 The electronic state is 1-A.
 Alpha  occ. eigenvalues --  -19.74838 -19.74836 -19.66336 -10.76064 -10.64464
 Alpha  occ. eigenvalues --  -10.64352  -2.22530  -1.34195  -1.21739  -1.19627
 Alpha  occ. eigenvalues --   -0.90421  -0.77809  -0.74792  -0.64552  -0.62934
 Alpha  occ. eigenvalues --   -0.57832  -0.55432  -0.51127  -0.50267  -0.49294
 Alpha  occ. eigenvalues --   -0.46400  -0.40603  -0.32757
 Alpha virt. eigenvalues --   -0.01758  -0.00076   0.00333   0.00380   0.01714
 Alpha virt. eigenvalues --    0.02200   0.03559   0.04851   0.05208   0.05320
 Alpha virt. eigenvalues --    0.05786   0.06444   0.06527   0.07347   0.08366

 Mulliken charges:
               1
     1  O   -0.540164
     2  C    0.759713
     3  O   -0.355516
     4  C    0.007919
     5  C    0.007822
     6  O   -0.355509
     7  H    0.277784
     8  H    0.277790
     9  Li   0.920162
 Sum of Mulliken charges =   1.00000

 Dipole moment (field-independent basis, Debye):
    X=            -19.1742    Y=              0.0014    Z=              6.1622  Tot=             20.1401
 Quadrupole moment (field-independent basis, Debye-Ang):
   XX=              2.0581   YY=            -32.6074   ZZ=            -18.8199
   XY=             -0.0054   XZ=            -22.2959   YZ=              0.0028

  Exact polarizability:  63.662   0.001  52.005   6.240  -0.002  34.079
 Approx polarizability:  58.560   0.000  55.265   5.462  -0.002  33.634

                      1                      2                      3
                      A                      A                      A
 Frequencies --    143.7731               153.3498               264.2513
 Red. masses --      7.4977                 8.4398                 7.1880
 Frc consts  --      0.0913                 0.1169                 0.2957
 IR Inten    --     32.0065                45.5961               199.7142

                      4                      5                      6
                      A                      A                      A
 Frequencies --    277.2106               537.7052               579.5268
 Red. masses --      6.0254                 8.7801                 4.1989
 Frc consts  --      0.2728                 1.4957                 0.8309
 IR Inten    --      9.5173                 0.0266                 0.4408

                      7                      8                      9
                      A                      A                      A
 Frequencies --    751.2158               759.7786               798.1141
 Red. masses --      2.1375                 9.1148                 2.3909
 Frc consts  --      0.7107                 3.1001                 0.8973
 IR Inten    --    141.9076                28.3791                 9.6095

                     10                     11                     12
                      A                      A                      A
 Frequencies --    872.4008               919.2220               955.4517
 Red. masses --      1.3060                 8.1130                 4.8310
 Frc consts  --      0.5856                 4.0390                 2.5984
 IR Inten    --      7.9791                 8.5257                26.3389

                     13                     14                     15
                      A                      A                      A
 Frequencies --   1112.7422              1137.6258              1146.8884
 Red. masses --      3.8397                 1.7164                 2.7917
 Frc consts  --      2.8011                 1.3088                 2.1636
 IR Inten    --     21.2601                 6.9357               167.3132

                     16                     17                     18
                      A                      A                      A
 Frequencies --   1214.6523              1394.4152              1690.4660
 Red. masses --      3.2862                 2.3621                 5.5820
 Frc consts  --      2.8566                 2.7060                 9.3984
 IR Inten    --    324.5127                78.0383                 7.8771

                     19                     20                     21
                      A                      A                      A
 Frequencies --   1918.8301              3305.0078              3327.6945
 Red. masses --     12.9547                 1.0934                 1.1180
 Frc consts  --     28.1029                 7.0371                 7.2941
 IR Inten    --   1169.7348                72.0694                26.0255

 - Thermochemistry -
 -------------------
 Temperature   298.150 Kelvin.  Pressure   1.00000 Atm.
 Atom     1 has atomic number  8 and mass  15.99491

 Molecular mass:    93.01640 amu.
 Principal axes and moments of inertia in atomic units:
                           1         2         3
     Eigenvalues --   293.53865 728.60604 815.53627
           X            0.99868   0.00002   0.05140
           Y           -0.00002   1.00000  -0.00006
           Z           -0.05140   0.00006   0.99868
 This molecule is an asymmetric top.
 Rotational symmetry number  1.
 Rotational temperatures (Kelvin)      0.29507     0.11888     0.10620
 Rotational constants (GHZ):           6.14822     2.47698     2.21295
 Zero-point vibrational energy     139127.6 (Joules/Mol)
                                   33.25230 (Kcal/Mol)
 Warning -- explicit consideration of   6 degrees of freedom as
           vibrations may cause significant error
 Vibrational temperatures:    206.86   220.64   380.20   398.84   773.64
          (Kelvin)            833.81  1080.83  1093.15  1148.31  1255.19
                             1322.55  1374.68  1600.99  1636.79  1650.11
                             1747.61  2006.25  2432.20  2760.77  4755.16
                             4787.80

 Zero-point correction=                           0.052991 (Hartree/Particle)
 Thermal correction to Energy=                    0.058910
 Thermal correction to Enthalpy=                  0.059855
 Thermal correction to Gibbs Free Energy=         0.023216
 Sum of electronic and zero-point Energies=           -348.436428
 Sum of electronic and thermal Energies=              -348.430509
 Sum of electronic and thermal Enthalpies=            -348.429565
 Sum of electronic and thermal Free Energies=         -348.466204

                     E (Thermal)             CV                S
                      KCal/Mol        Cal/Mol-Kelvin    Cal/Mol-Kelvin
 Total                   36.967             20.134             77.113
 Electronic               0.000              0.000              0.000
 Translational            0.889              2.981             39.502
 Rotational               0.889              2.981             26.659
 Vibrational             35.189             14.172             10.952
 Vibration     1          0.616              1.909              2.753
 Vibration     2          0.619              1.899              2.630
 Vibration     3          0.671              1.738              1.634
 Vibration     4          0.678              1.716              1.551
 Vibration     5          0.893              1.167              0.570
 Vibration     6          0.936              1.076              0.486

 Optimization completed.
    -- Stationary point found.
 Normal termination of Gaussian 09 at Mon May 16 17:16:49 2022.
