 Gaussian 09, Revision D.01,
 Gaussian 09:  EM64L-G09RevD.01 24-Apr-2013

 ----------------------------------------------------------------------
 #P M062X/6-31+G** EmpiricalDispersion=GD3 SCRF(SMD,solvent=DiMethylSul
 foxide) Opt Freq
 ----------------------------------------------------------------------

 ---------
 4427-96-7
 ---------
 Symbolic Z-matrix:
 Charge =  1 Multiplicity = 1

 SCF Done:  E(RM062X) =  -427.081517957     A.U. after   13 cycles
 SCF Done:  E(RM062X) =  -427.086091728     A.U. after   12 cycles
 SCF Done:  E(RM062X) =  -427.087592246     A.U. after   11 cycles
 SCF Done:  E(RM062X) =  -427.034215238     A.U. after   13 cycles
 SCF Done:  E(RM062X) =  -427.087606024     A.U. after    7 cycles
 SCF Done:  E(RM062X) =  -427.094101994     A.U. after   12 cycles
 SCF Done:  E(RM062X) =  -427.105747926     A.U. after   12 cycles
 SCF Done:  E(RM062X) =  -427.100887662     A.U. after   12 cycles
 SCF Done:  E(RM062X) =  -427.107010160     A.U. after    9 cycles
 SCF Done:  E(RM062X) =  -427.107284418     A.U. after   11 cycles
 SCF Done:  E(RM062X) =  -427.108380083     A.U. after   11 cycles
 SCF Done:  E(RM062X) =  -427.108442984     A.U. after   10 cycles
 SCF Done:  E(RM062X) =  -427.108448814     A.U. after    9 cycles
 SCF Done:  E(RM062X) =  -427.108452156     A.U. after    9 cycles
 SCF Done:  E(RM062X) =  -427.108454735     A.U. after    9 cycles
 SCF Done:  E(RM062X) =  -427.108456117     A.U. after    8 cycles
 SCF Done:  E(RM062X) =  -427.108456339     A.U. after    8 cycles
 SCF Done:  E(RM062X) =  -427.108456449     A.U. after    7 cycles
 SCF Done:  E(RM062X) =  -427.108456511     A.U. after    7 cycles
 Optimization completed.
    -- Stationary point found.
 Normal termination of Gaussian 09 at Mon May 16 17:40:04 2022.

 ----------------------------------------------------------------------
 #P Geom=AllCheck Guess=TCheck SCRF=Check GenChk RM062X/6-31+G(d,p) Fre
 q
 ----------------------------------------------------------------------

 Structure from the checkpoint file:  "/gpfs/data/yqi27/cgu13/CHEM1560Q/Gaussian/4427-96-7/inp4/Gau-122398.chk"
 ---------
 4427-96-7
 ---------
 Charge =  1 Multiplicity = 1

                         Standard orientation:
 ---------------------------------------------------------------------
 Center     Atomic      Atomic             Coordinates (Angstroms)
 Number     Number       Type             X           Y           Z
 ---------------------------------------------------------------------
      1          6           0        3.289249   -0.477847    0.110027
      2          6           0        2.109204   -0.243669   -0.459747
      3          6           0        0.898909    0.102261    0.338345
      4          1           0        1.100314    0.062545    1.412085
      5          6           0        0.216470    1.410994   -0.067455
      6          8           0       -1.191849    1.084429    0.042212
      7          6           0       -1.322986   -0.230416    0.021417
      8          8           0       -2.399147   -0.801774   -0.038414
      9          8           0       -0.169676   -0.866948    0.075370
     10          1           0        4.168305   -0.698327   -0.487999
     11          1           0        3.410012   -0.450174    1.190741
     12          1           0        1.981765   -0.264683   -1.541228
     13          1           0        0.433504    2.237429    0.606031
     14          1           0        0.417394    1.685335   -1.105711
     15          3           0       -4.190326   -0.421902   -0.120925
 ---------------------------------------------------------------------

 SCF Done:  E(RM062X) =  -427.108456511     A.U. after    1 cycles

 The electronic state is 1-A.
 Alpha  occ. eigenvalues --  -19.73198 -19.72975 -19.68201 -10.77469 -10.63962
 Alpha  occ. eigenvalues --  -10.62902 -10.56805 -10.56040  -2.18713  -1.32907
 Alpha  occ. eigenvalues --   -1.20297  -1.19838  -0.93189  -0.85670  -0.78316
 Alpha  occ. eigenvalues --   -0.72282  -0.67734  -0.64761  -0.62570  -0.59836
 Alpha  occ. eigenvalues --   -0.56954  -0.53427  -0.52628  -0.51092  -0.48205
 Alpha  occ. eigenvalues --   -0.46193  -0.43807  -0.43010  -0.41268  -0.39717
 Alpha  occ. eigenvalues --   -0.34278
 Alpha virt. eigenvalues --   -0.01627   0.00236   0.00315   0.00405   0.01152
 Alpha virt. eigenvalues --    0.02693   0.03275   0.03722   0.04639   0.05059
 Alpha virt. eigenvalues --    0.05284   0.05357   0.05899   0.06322   0.07764

 Mulliken charges:
               1
     1  C   -0.313687
     2  C   -0.023118
     3  C   -0.127783
     4  H    0.228656
     5  C   -0.215275
     6  O   -0.370255
     7  C    0.784577
     8  O   -0.499021
     9  O   -0.344404
    10  H    0.196537
    11  H    0.192705
    12  H    0.206774
    13  H    0.236449
    14  H    0.228319
    15  Li   0.819527
 Sum of Mulliken charges =   1.00000

 Dipole moment (field-independent basis, Debye):
    X=            -10.9170    Y=              1.9551    Z=             -0.0590  Tot=             11.0909
 Quadrupole moment (field-independent basis, Debye-Ang):
   XX=             26.7835   YY=            -47.4695   ZZ=            -41.8219
   XY=              4.8868   XZ=              2.7977   YZ=              0.2164

  Exact polarizability: 111.334  -0.245  71.889   7.805  -1.442  69.861
 Approx polarizability:  93.365   0.305  66.591   6.812  -0.820  62.052

                      1                      2                      3
                      A                      A                      A
 Frequencies --     86.6779                89.9460               125.7560
 Red. masses --      4.1128                 4.0339                 7.0656
 Frc consts  --      0.0182                 0.0192                 0.0658
 IR Inten    --     23.8952                27.7580                85.8989

                      4                      5                      6
                      A                      A                      A
 Frequencies --    133.6571               208.8430               295.6991
 Red. masses --      6.5164                 4.0503                 2.1953
 Frc consts  --      0.0686                 0.1041                 0.1131
 IR Inten    --     84.2925                 0.1051                 1.9268

                      7                      8                      9
                      A                      A                      A
 Frequencies --    344.1700               404.7718               479.3432
 Red. masses --      2.6271                 4.3690                 5.6437
 Frc consts  --      0.1833                 0.4217                 0.7640
 IR Inten    --      3.7055                40.0148               154.5164

                     10                     11                     12
                      A                      A                      A
 Frequencies --    553.8319               684.8625               714.6395
 Red. masses --      6.1780                 1.9719                 2.7793
 Frc consts  --      1.1165                 0.5449                 0.8363
 IR Inten    --     52.3812                27.7462                 1.6418

                     13                     14                     15
                      A                      A                      A
 Frequencies --    758.8333               798.1038               903.0343
 Red. masses --      6.9581                12.0867                 3.0821
 Frc consts  --      2.3607                 4.5360                 1.4808
 IR Inten    --    106.3041                52.8434                18.6243

                     16                     17                     18
                      A                      A                      A
 Frequencies --    984.0556               997.5038              1014.6888
 Red. masses --      1.4533                 3.7267                 1.2309
 Frc consts  --      0.8292                 2.1848                 0.7467
 IR Inten    --     46.7618                39.3391               114.4302

                     19                     20                     21
                      A                      A                      A
 Frequencies --   1036.1120              1056.6176              1108.1456
 Red. masses --      1.2117                 4.8424                 2.4381
 Frc consts  --      0.7664                 3.1853                 1.7640
 IR Inten    --     12.0191                32.2760                 8.2977

                     22                     23                     24
                      A                      A                      A
 Frequencies --   1150.9606              1205.0767              1256.2221
 Red. masses --     12.8227                 1.9975                 1.2426
 Frc consts  --     10.0080                 1.7091                 1.1554
 IR Inten    --    271.8981                16.5881                20.6504

                     25                     26                     27
                      A                      A                      A
 Frequencies --   1269.4060              1308.3221              1356.4050
 Red. masses --      1.6735                 1.2751                 1.2345
 Frc consts  --      1.5889                 1.2859                 1.3382
 IR Inten    --    266.5760                 0.7824                10.4211

                     28                     29                     30
                      A                      A                      A
 Frequencies --   1390.8434              1453.2730              1475.1224
 Red. masses --      1.6384                 1.4932                 1.6893
 Frc consts  --      1.8673                 1.8581                 2.1658
 IR Inten    --     96.1921               160.1739                65.8959

                     31                     32                     33
                      A                      A                      A
 Frequencies --   1513.0843              1747.1989              1824.6547
 Red. masses --      1.1813                 5.0642                12.4618
 Frc consts  --      1.5934                 9.1085                24.4451
 IR Inten    --     74.0538                 6.8050              1412.6841

                     34                     35                     36
                      A                      A                      A
 Frequencies --   3140.7255              3146.6977              3173.4514
 Red. masses --      1.0714                 1.0780                 1.0609
 Frc consts  --      6.2270                 6.2887                 6.2950
 IR Inten    --      4.2966                10.1760                 2.8060

                     37                     38                     39
                      A                      A                      A
 Frequencies --   3190.8737              3225.1508              3272.8303
 Red. masses --      1.0958                 1.1121                 1.1173
 Frc consts  --      6.5737                 6.8152                 7.0515
 IR Inten    --      2.0302                 1.0002                 2.7535

 - Thermochemistry -
 -------------------
 Temperature   298.150 Kelvin.  Pressure   1.00000 Atm.
 Atom     1 has atomic number  6 and mass  12.00000

 Molecular mass:   121.04770 amu.
 Principal axes and moments of inertia in atomic units:
                           1         2         3
     Eigenvalues --   325.169451777.500322016.71713
           X            0.99994  -0.01134  -0.00031
           Y            0.01134   0.99993  -0.00374
           Z            0.00035   0.00373   0.99999
 This molecule is an asymmetric top.
 Rotational symmetry number  1.
 Rotational temperatures (Kelvin)      0.26637     0.04873     0.04295
 Rotational constants (GHZ):           5.55016     1.01533     0.89489
 Zero-point vibrational energy     292364.9 (Joules/Mol)
                                   69.87688 (Kcal/Mol)
 Warning -- explicit consideration of  10 degrees of freedom as
           vibrations may cause significant error
 Vibrational temperatures:    124.71   129.41   180.93   192.30   300.48
          (Kelvin)            425.44   495.18   582.38   689.67   796.84
                              985.36  1028.21  1091.79  1148.29  1299.26
                             1415.83  1435.18  1459.91  1490.73  1520.24
                             1594.37  1655.97  1733.83  1807.42  1826.39
                             1882.38  1951.56  2001.11  2090.93  2122.37
                             2176.99  2513.83  2625.27  4518.80  4527.39
                             4565.88  4590.95  4640.27  4708.87

 Zero-point correction=                           0.111356 (Hartree/Particle)
 Thermal correction to Energy=                    0.119889
 Thermal correction to Enthalpy=                  0.120834
 Thermal correction to Gibbs Free Energy=         0.077605
 Sum of electronic and zero-point Energies=           -426.997101
 Sum of electronic and thermal Energies=              -426.988567
 Sum of electronic and thermal Enthalpies=            -426.987623
 Sum of electronic and thermal Free Energies=         -427.030851

                     E (Thermal)             CV                S
                      KCal/Mol        Cal/Mol-Kelvin    Cal/Mol-Kelvin
 Total                   75.232             29.752             90.981
 Electronic               0.000              0.000              0.000
 Translational            0.889              2.981             40.287
 Rotational               0.889              2.981             28.546
 Vibrational             73.454             23.791             22.148
 Vibration     1          0.601              1.958              3.734
 Vibration     2          0.602              1.956              3.661
 Vibration     3          0.611              1.927              3.010
 Vibration     4          0.613              1.920              2.893
 Vibration     5          0.642              1.827              2.054
 Vibration     6          0.690              1.682              1.441
 Vibration     7          0.723              1.587              1.193
 Vibration     8          0.770              1.460              0.945
 Vibration     9          0.836              1.296              0.712
 Vibration    10          0.909              1.131              0.536

 Optimization completed.
    -- Stationary point found.
 Normal termination of Gaussian 09 at Mon May 16 17:41:46 2022.
