 Gaussian 09, Revision D.01,
 Gaussian 09:  EM64L-G09RevD.01 24-Apr-2013

 ----------------------------------------------------------------------
 #P M062X/6-31+G** EmpiricalDispersion=GD3 SCRF(SMD,solvent=DiMethylSul
 foxide) Opt Freq
 ----------------------------------------------------------------------

 ---------
 4427-96-7
 ---------
 Symbolic Z-matrix:
 Charge =  1 Multiplicity = 1

 SCF Done:  E(RM062X) =  -427.078996915     A.U. after   13 cycles
 SCF Done:  E(RM062X) =  -427.083119053     A.U. after   12 cycles
 SCF Done:  E(RM062X) =  -427.083264132     A.U. after   10 cycles
 SCF Done:  E(RM062X) =  -427.083264506     A.U. after   11 cycles
 SCF Done:  E(RM062X) =  -427.083334237     A.U. after   11 cycles
 SCF Done:  E(RM062X) =  -427.083406500     A.U. after   11 cycles
 SCF Done:  E(RM062X) =  -427.045992299     A.U. after   13 cycles
 SCF Done:  E(RM062X) =  -427.083410514     A.U. after    7 cycles
 SCF Done:  E(RM062X) =  -427.078934991     A.U. after   12 cycles
 SCF Done:  E(RM062X) =  -427.083425406     A.U. after    7 cycles
 SCF Done:  E(RM062X) =  -427.084454653     A.U. after    9 cycles
 SCF Done:  E(RM062X) =  -427.084461539     A.U. after    9 cycles
 SCF Done:  E(RM062X) =  -427.084451713     A.U. after    8 cycles
 SCF Done:  E(RM062X) =  -427.084451932     A.U. after    8 cycles
 SCF Done:  E(RM062X) =  -427.084448492     A.U. after    8 cycles
 SCF Done:  E(RM062X) =  -427.084442762     A.U. after    7 cycles
 SCF Done:  E(RM062X) =  -427.084438747     A.U. after    7 cycles
 SCF Done:  E(RM062X) =  -427.084437104     A.U. after    7 cycles
 SCF Done:  E(RM062X) =  -427.084435547     A.U. after    7 cycles
 Optimization completed.
    -- Stationary point found.
 Normal termination of Gaussian 09 at Mon May 16 18:15:16 2022.

 ----------------------------------------------------------------------
 #P Geom=AllCheck Guess=TCheck SCRF=Check GenChk RM062X/6-31+G(d,p) Fre
 q
 ----------------------------------------------------------------------

 Structure from the checkpoint file:  "/gpfs/data/yqi27/cgu13/CHEM1560Q/Gaussian/4427-96-7/inp6/Gau-130108.chk"
 ---------
 4427-96-7
 ---------
 Charge =  1 Multiplicity = 1

                         Standard orientation:
 ---------------------------------------------------------------------
 Center     Atomic      Atomic             Coordinates (Angstroms)
 Number     Number       Type             X           Y           Z
 ---------------------------------------------------------------------
      1          6           0       -3.078226   -0.237694   -0.356593
      2          6           0       -1.863127   -0.745451   -0.162106
      3          6           0       -0.660998    0.109442    0.062955
      4          1           0       -0.902656    1.170659   -0.061412
      5          6           0        0.060808   -0.151839    1.387375
      6          8           0        1.448405   -0.016896    1.028999
      7          6           0        1.575872   -0.172122   -0.297479
      8          8           0        2.626231   -0.255967   -0.873167
      9          8           0        0.376107   -0.216931   -0.898150
     10          1           0       -3.943528   -0.881778   -0.481752
     11          1           0       -3.243646    0.837014   -0.389670
     12          1           0       -1.696276   -1.821513   -0.125440
     13          1           0       -0.177839    0.579764    2.157563
     14          1           0       -0.105465   -1.168154    1.756119
     15          3           0       -0.580834    4.129453   -0.240592
 ---------------------------------------------------------------------

 SCF Done:  E(RM062X) =  -427.084435547     A.U. after    1 cycles

 The electronic state is 1-A.
 Alpha  occ. eigenvalues --  -19.70902 -19.70846 -19.64619 -10.74053 -10.63013
 Alpha  occ. eigenvalues --  -10.61855 -10.56548 -10.55756  -2.22737  -1.30001
 Alpha  occ. eigenvalues --   -1.17840  -1.17002  -0.92190  -0.84662  -0.76735
 Alpha  occ. eigenvalues --   -0.70257  -0.66891  -0.62638  -0.59813  -0.58222
 Alpha  occ. eigenvalues --   -0.53424  -0.51760  -0.51704  -0.49977  -0.46298
 Alpha  occ. eigenvalues --   -0.45405  -0.42690  -0.39106  -0.38488  -0.38115
 Alpha  occ. eigenvalues --   -0.33793
 Alpha virt. eigenvalues --   -0.02078   0.00135   0.00412   0.00488   0.01672
 Alpha virt. eigenvalues --    0.01704   0.03915   0.04348   0.04775   0.04943
 Alpha virt. eigenvalues --    0.05493   0.05773   0.06039   0.06843   0.07224

 Mulliken charges:
               1
     1  C   -0.335567
     2  C    0.027161
     3  C   -0.198625
     4  H    0.207090
     5  C   -0.206914
     6  O   -0.386665
     7  C    0.793725
     8  O   -0.562015
     9  O   -0.359339
    10  H    0.193971
    11  H    0.186657
    12  H    0.202730
    13  H    0.221290
    14  H    0.212985
    15  Li   1.003516
 Sum of Mulliken charges =   1.00000

 Dipole moment (field-independent basis, Debye):
    X=             -9.6016    Y=             20.2290    Z=              2.3624  Tot=             22.5163
 Quadrupole moment (field-independent basis, Debye-Ang):
   XX=            -54.2942   YY=             39.0926   ZZ=            -49.3665
   XY=            -10.4534   XZ=              3.7488   YZ=             -6.0139

  Exact polarizability: 112.296  -6.845  70.990  -2.108  -0.467  72.671
 Approx polarizability:  94.881  -6.254  62.760  -2.388   0.205  66.669

 ******    1 imaginary frequencies (negative Signs) ******

                      1                      2                      3
                      A                      A                      A
 Frequencies --    -62.3853                68.8936                88.3840
 Red. masses --      5.2535                 6.5330                 3.7642
 Frc consts  --      0.0120                 0.0183                 0.0173
 IR Inten    --     56.0167                92.9032                 7.5318

                      4                      5                      6
                      A                      A                      A
 Frequencies --     92.0811               159.6830               196.7586
 Red. masses --      4.3791                 7.1143                 3.8270
 Frc consts  --      0.0219                 0.1069                 0.0873
 IR Inten    --     11.2397               121.2020                 0.3568

                      7                      8                      9
                      A                      A                      A
 Frequencies --    292.7606               337.9643               435.8898
 Red. masses --      2.0559                 2.4940                 4.4262
 Frc consts  --      0.1038                 0.1678                 0.4955
 IR Inten    --      4.1089                 0.8822                 8.9824

                     10                     11                     12
                      A                      A                      A
 Frequencies --    542.5786               679.8857               709.1636
 Red. masses --      5.4500                 1.9681                 2.8057
 Frc consts  --      0.9453                 0.5360                 0.8313
 IR Inten    --      4.3271                18.4829                 1.0198

                     13                     14                     15
                      A                      A                      A
 Frequencies --    737.2799               789.3297               907.0607
 Red. masses --      7.1565                11.8368                 2.9116
 Frc consts  --      2.2920                 4.3451                 1.4114
 IR Inten    --     23.6506                44.2859                 7.0934

                     16                     17                     18
                      A                      A                      A
 Frequencies --    979.7155               985.7722               999.4514
 Red. masses --      4.0972                 1.3670                 1.3174
 Frc consts  --      2.3171                 0.7827                 0.7753
 IR Inten    --      3.2601                27.3063                85.4650

                     19                     20                     21
                      A                      A                      A
 Frequencies --   1032.5322              1082.7235              1108.3225
 Red. masses --      1.1564                 5.7008                 2.4423
 Frc consts  --      0.7264                 3.9375                 1.7676
 IR Inten    --     34.0632                46.0541                27.2863

                     22                     23                     24
                      A                      A                      A
 Frequencies --   1133.3705              1208.4525              1220.2773
 Red. masses --     10.3912                 2.0661                 2.2698
 Frc consts  --      7.8643                 1.7777                 1.9914
 IR Inten    --    441.2937                 7.1308               354.4976

                     25                     26                     27
                      A                      A                      A
 Frequencies --   1258.9308              1310.5872              1354.4938
 Red. masses --      1.2555                 1.2702                 1.2305
 Frc consts  --      1.1724                 1.2854                 1.3301
 IR Inten    --     25.1598                 0.7230                 9.6090

                     28                     29                     30
                      A                      A                      A
 Frequencies --   1363.4135              1429.0300              1462.4709
 Red. masses --      1.7393                 1.5350                 1.3661
 Frc consts  --      1.9049                 1.8469                 1.7215
 IR Inten    --    124.0998                85.0601                20.4634

                     31                     32                     33
                      A                      A                      A
 Frequencies --   1515.3897              1750.4399              1891.9111
 Red. masses --      1.1000                 5.0936                12.7811
 Frc consts  --      1.4883                 9.1954                26.9538
 IR Inten    --     22.7102                 0.9348              1222.0590

                     34                     35                     36
                      A                      A                      A
 Frequencies --   3119.4419              3136.4973              3161.7814
 Red. masses --      1.0655                 1.0834                 1.0604
 Frc consts  --      6.1086                 6.2798                 6.2459
 IR Inten    --     13.3114                29.6444                 5.1843

                     37                     38                     39
                      A                      A                      A
 Frequencies --   3183.7520              3209.4217              3258.0203
 Red. masses --      1.0954                 1.1075                 1.1181
 Frc consts  --      6.5420                 6.7213                 6.9926
 IR Inten    --      3.3468                 6.1258                 4.3252

 - Thermochemistry -
 -------------------
 Temperature   298.150 Kelvin.  Pressure   1.00000 Atm.
 Atom     1 has atomic number  6 and mass  12.00000

 Molecular mass:   121.04770 amu.
 Principal axes and moments of inertia in atomic units:
                           1         2         3
     Eigenvalues --   763.158391589.187571805.30710
           X            0.99967   0.02437   0.00854
           Y           -0.02442   0.99968   0.00626
           Z           -0.00838  -0.00647   0.99994
 This molecule is an asymmetric top.
 Rotational symmetry number  1.
 Warning -- assumption of classical behavior for rotation
           may cause significant error
 Rotational temperatures (Kelvin)      0.11349     0.05450     0.04798
 Rotational constants (GHZ):           2.36483     1.13564     0.99969
    1 imaginary frequencies ignored.
 Zero-point vibrational energy     288263.6 (Joules/Mol)
                                   68.89666 (Kcal/Mol)
 Warning -- explicit consideration of   9 degrees of freedom as
           vibrations may cause significant error
 Vibrational temperatures:     99.12   127.16   132.48   229.75   283.09
          (Kelvin)            421.22   486.25   627.15   780.65   978.20
                             1020.33  1060.78  1135.67  1305.06  1409.59
                             1418.30  1437.99  1485.58  1557.80  1594.63
                             1630.67  1738.69  1755.70  1811.32  1885.64
                             1948.81  1961.65  2056.05  2104.17  2180.31
                             2518.49  2722.03  4488.18  4512.71  4549.09
                             4580.70  4617.64  4687.56

 Zero-point correction=                           0.109794 (Hartree/Particle)
 Thermal correction to Energy=                    0.118173
 Thermal correction to Enthalpy=                  0.119117
 Thermal correction to Gibbs Free Energy=         0.075510
 Sum of electronic and zero-point Energies=           -426.974642
 Sum of electronic and thermal Energies=              -426.966263
 Sum of electronic and thermal Enthalpies=            -426.965319
 Sum of electronic and thermal Free Energies=         -427.008925

                     E (Thermal)             CV                S
                      KCal/Mol        Cal/Mol-Kelvin    Cal/Mol-Kelvin
 Total                   74.154             28.595             91.778
 Electronic               0.000              0.000              0.000
 Translational            0.889              2.981             40.287
 Rotational               0.889              2.981             29.172
 Vibrational             72.377             22.633             22.319
 Vibration     1          0.598              1.969              4.185
 Vibration     2          0.601              1.957              3.696
 Vibration     3          0.602              1.955              3.615
 Vibration     4          0.622              1.892              2.554
 Vibration     5          0.636              1.844              2.163
 Vibration     6          0.688              1.687              1.458
 Vibration     7          0.718              1.600              1.222
 Vibration     8          0.796              1.392              0.840
 Vibration     9          0.898              1.156              0.560

 Optimization completed.
    -- Stationary point found.
 Normal termination of Gaussian 09 at Mon May 16 18:16:59 2022.
