 Gaussian 09, Revision D.01,
 Gaussian 09:  EM64L-G09RevD.01 24-Apr-2013

 ----------------------------------------------------------------------
 #P M062X/6-31+G** EmpiricalDispersion=GD3 SCRF(SMD,solvent=DiMethylSul
 foxide) Opt Freq
 ----------------------------------------------------------------------

 --------
 872-36-6
 --------
 Symbolic Z-matrix:
 Charge =  1 Multiplicity = 1

 SCF Done:  E(RM062X) =  -348.084695210     A.U. after   13 cycles
 SCF Done:  E(RM062X) =  -348.267878077     A.U. after   11 cycles
 SCF Done:  E(RM062X) =  -348.439826806     A.U. after   12 cycles
 SCF Done:  E(RM062X) =  -348.490046081     A.U. after   11 cycles
 SCF Done:  E(RM062X) =  -348.505298304     A.U. after   11 cycles
 SCF Done:  E(RM062X) =  -348.506639024     A.U. after   10 cycles
 SCF Done:  E(RM062X) =  -348.507733032     A.U. after   10 cycles
 SCF Done:  E(RM062X) =  -348.507389643     A.U. after   10 cycles
 SCF Done:  E(RM062X) =  -348.507864332     A.U. after    8 cycles
 SCF Done:  E(RM062X) =  -348.507894280     A.U. after   10 cycles
 SCF Done:  E(RM062X) =  -348.507896580     A.U. after    8 cycles
 Optimization completed.
    -- Stationary point found.
 Normal termination of Gaussian 09 at Mon May 16 17:18:28 2022.

 ----------------------------------------------------------------------
 #P Geom=AllCheck Guess=TCheck SCRF=Check GenChk RM062X/6-31+G(d,p) Fre
 q
 ----------------------------------------------------------------------

 Structure from the checkpoint file:  "/gpfs/data/yqi27/cgu13/CHEM1560Q/Gaussian/872-36-6/inp4/Gau-240761.chk"
 --------
 872-36-6
 --------
 Charge =  1 Multiplicity = 1

                         Standard orientation:
 ---------------------------------------------------------------------
 Center     Atomic      Atomic             Coordinates (Angstroms)
 Number     Number       Type             X           Y           Z
 ---------------------------------------------------------------------
      1          8           0        1.727685    0.000004    0.000194
      2          6           0        0.514077    0.000002    0.000004
      3          8           0       -0.249137    1.088582    0.000104
      4          6           0       -1.572047    0.664005   -0.000160
      5          6           0       -1.572045   -0.664009    0.000024
      6          8           0       -0.249133   -1.088582   -0.000021
      7          1           0       -2.341630    1.419446   -0.000230
      8          1           0       -2.341625   -1.419453    0.000023
      9          3           0        3.542674   -0.000006   -0.000405
 ---------------------------------------------------------------------

 SCF Done:  E(RM062X) =  -348.507896580     A.U. after    1 cycles

 The electronic state is 1-A.
 Alpha  occ. eigenvalues --  -19.76430 -19.76427 -19.69160 -10.78733 -10.64293
 Alpha  occ. eigenvalues --  -10.64177  -2.19210  -1.36401  -1.23423  -1.21815
 Alpha  occ. eigenvalues --   -0.91169  -0.79220  -0.75930  -0.66690  -0.64783
 Alpha  occ. eigenvalues --   -0.59785  -0.58192  -0.51829  -0.51596  -0.50311
 Alpha  occ. eigenvalues --   -0.48378  -0.43933  -0.33346
 Alpha virt. eigenvalues --   -0.01710   0.00101   0.00368   0.00420   0.02468
 Alpha virt. eigenvalues --    0.02631   0.02747   0.03864   0.04588   0.05104
 Alpha virt. eigenvalues --    0.05244   0.05317   0.07024   0.07338   0.08725

 Mulliken charges:
               1
     1  O   -0.463805
     2  C    0.680014
     3  O   -0.329044
     4  C    0.021477
     5  C    0.021476
     6  O   -0.329044
     7  H    0.273380
     8  H    0.273380
     9  Li   0.852165
 Sum of Mulliken charges =   1.00000

 Dipole moment (field-independent basis, Debye):
    X=              8.3729    Y=              0.0000    Z=             -0.0026  Tot=              8.3729
 Quadrupole moment (field-independent basis, Debye-Ang):
   XX=             26.8077   YY=            -31.8990   ZZ=            -33.5754
   XY=             -0.0001   XZ=             -0.0071   YZ=             -0.0007

  Exact polarizability:  65.436   0.000  51.540   0.002  -0.002  30.091
 Approx polarizability:  58.653   0.000  54.420   0.002  -0.003  30.069

                      1                      2                      3
                      A                      A                      A
 Frequencies --     50.3507                83.7208               260.4940
 Red. masses --      7.7224                 7.6725                 7.1154
 Frc consts  --      0.0115                 0.0317                 0.2845
 IR Inten    --    112.7212               116.7526                 0.1261

                      4                      5                      6
                      A                      A                      A
 Frequencies --    447.6124               528.0104               572.2280
 Red. masses --      7.2402                 8.8151                 3.7566
 Frc consts  --      0.8547                 1.4480                 0.7247
 IR Inten    --    214.3801                 1.1094                 0.0000

                      7                      8                      9
                      A                      A                      A
 Frequencies --    740.5574               802.9600               803.5631
 Red. masses --      1.3793                11.0324                 5.5495
 Frc consts  --      0.4457                 4.1909                 2.1113
 IR Inten    --    169.5479                97.9186                 4.8791

                     10                     11                     12
                      A                      A                      A
 Frequencies --    860.2086               924.1636              1007.1327
 Red. masses --      1.3636                 8.1175                 4.3059
 Frc consts  --      0.5945                 4.0848                 2.5733
 IR Inten    --      0.0000                20.3524                10.1920

                     13                     14                     15
                      A                      A                      A
 Frequencies --   1102.4118              1122.5869              1206.5139
 Red. masses --      3.7498                 2.0886                 2.2331
 Frc consts  --      2.6850                 1.5508                 1.9152
 IR Inten    --     34.3140                24.9841                99.4026

                     16                     17                     18
                      A                      A                      A
 Frequencies --   1215.9831              1424.5327              1703.6120
 Red. masses --      2.6742                 3.1026                 5.4682
 Frc consts  --      2.3297                 3.7095                 9.3505
 IR Inten    --    176.9591               109.7438                 5.9947

                     19                     20                     21
                      A                      A                      A
 Frequencies --   1869.5233              3311.2754              3335.3644
 Red. masses --     12.7405                 1.0938                 1.1202
 Frc consts  --     26.2361                 7.0660                 7.3422
 IR Inten    --   1468.0678                80.7187                31.9220

 - Thermochemistry -
 -------------------
 Temperature   298.150 Kelvin.  Pressure   1.00000 Atm.
 Atom     1 has atomic number  8 and mass  15.99491

 Molecular mass:    93.01640 amu.
 Principal axes and moments of inertia in atomic units:
                           1         2         3
     Eigenvalues --   187.66388 752.02649 939.69036
           X            1.00000   0.00000   0.00001
           Y            0.00000   1.00000  -0.00001
           Z           -0.00001   0.00001   1.00000
 This molecule is an asymmetric top.
 Rotational symmetry number  1.
 Rotational temperatures (Kelvin)      0.46154     0.11517     0.09217
 Rotational constants (GHZ):           9.61688     2.39984     1.92057
 Zero-point vibrational energy     139800.4 (Joules/Mol)
                                   33.41310 (Kcal/Mol)
 Warning -- explicit consideration of   6 degrees of freedom as
           vibrations may cause significant error
 Vibrational temperatures:     72.44   120.46   374.79   644.01   759.69
          (Kelvin)            823.31  1065.50  1155.28  1156.15  1237.65
                             1329.66  1449.04  1586.12  1615.15  1735.90
                             1749.53  2049.58  2451.11  2689.82  4764.18
                             4798.84

 Zero-point correction=                           0.053247 (Hartree/Particle)
 Thermal correction to Energy=                    0.059288
 Thermal correction to Enthalpy=                  0.060232
 Thermal correction to Gibbs Free Energy=         0.022544
 Sum of electronic and zero-point Energies=           -348.454649
 Sum of electronic and thermal Energies=              -348.448609
 Sum of electronic and thermal Enthalpies=            -348.447665
 Sum of electronic and thermal Free Energies=         -348.485352

                     E (Thermal)             CV                S
                      KCal/Mol        Cal/Mol-Kelvin    Cal/Mol-Kelvin
 Total                   37.203             19.816             79.320
 Electronic               0.000              0.000              0.000
 Translational            0.889              2.981             39.502
 Rotational               0.889              2.981             26.386
 Vibrational             35.426             13.854             13.432
 Vibration     1          0.595              1.977              4.804
 Vibration     2          0.601              1.960              3.802
 Vibration     3          0.669              1.745              1.658
 Vibration     4          0.807              1.366              0.803
 Vibration     5          0.883              1.188              0.592
 Vibration     6          0.928              1.091              0.500

 Optimization completed.
    -- Stationary point found.
 Normal termination of Gaussian 09 at Mon May 16 17:19:05 2022.
