 Gaussian 09, Revision D.01,
 Gaussian 09:  EM64L-G09RevD.01 24-Apr-2013

 ----------------------------------------------------------------------
 #P M062X/6-31+G** EmpiricalDispersion=GD3 SCRF(SMD,solvent=DiMethylSul
 foxide) Opt Freq
 ----------------------------------------------------------------------

 ---------
 4427-96-7
 ---------
 Symbolic Z-matrix:
 Charge =  0 Multiplicity = 2

 SCF Done:  E(UM062X) =  -427.143863043     A.U. after   22 cycles
 SCF Done:  E(UM062X) =  -427.157429876     A.U. after   19 cycles
 SCF Done:  E(UM062X) =  -427.164044007     A.U. after   18 cycles
 SCF Done:  E(UM062X) =  -427.170658122     A.U. after   18 cycles
 SCF Done:  E(UM062X) =  -427.180186704     A.U. after   17 cycles
 SCF Done:  E(UM062X) =  -427.196447323     A.U. after   18 cycles
 SCF Done:  E(UM062X) =  -427.208770872     A.U. after   16 cycles
 SCF Done:  E(UM062X) =  -427.216898958     A.U. after   16 cycles
 SCF Done:  E(UM062X) =  -427.219520275     A.U. after   15 cycles
 SCF Done:  E(UM062X) =  -427.221584791     A.U. after   15 cycles
 SCF Done:  E(UM062X) =  -427.234459174     A.U. after   14 cycles
 SCF Done:  E(UM062X) =  -427.234643479     A.U. after   15 cycles
 SCF Done:  E(UM062X) =  -427.234697777     A.U. after   14 cycles
 SCF Done:  E(UM062X) =  -427.234603305     A.U. after   15 cycles
 SCF Done:  E(UM062X) =  -427.234739343     A.U. after   14 cycles
 SCF Done:  E(UM062X) =  -427.234740189     A.U. after   13 cycles
 SCF Done:  E(UM062X) =  -427.234741822     A.U. after   13 cycles
 SCF Done:  E(UM062X) =  -427.234743956     A.U. after   12 cycles
 SCF Done:  E(UM062X) =  -427.234743180     A.U. after    8 cycles
 Optimization completed.
    -- Stationary point found.
 Normal termination of Gaussian 09 at Mon May 16 18:45:03 2022.

 ----------------------------------------------------------------------
 #P Geom=AllCheck Guess=TCheck SCRF=Check GenChk UM062X/6-31+G(d,p) Fre
 q
 ----------------------------------------------------------------------

 Structure from the checkpoint file:  "/gpfs/data/yqi27/cgu13/CHEM1560Q/Gaussian/4427-96-7/opt_inp/Gau-142452.chk"
 ---------
 4427-96-7
 ---------
 Charge =  0 Multiplicity = 2

                         Standard orientation:
 ---------------------------------------------------------------------
 Center     Atomic      Atomic             Coordinates (Angstroms)
 Number     Number       Type             X           Y           Z
 ---------------------------------------------------------------------
      1          6           0       -3.385049   -0.462266   -0.640558
      2          6           0       -2.306068   -0.197892    0.181932
      3          6           0       -1.300609    0.713044   -0.114553
      4          1           0       -1.334185    1.262675   -1.054584
      5          6           0       -0.169978    1.014326    0.809286
      6          8           0        1.101969    0.810455    0.169489
      7          6           0        1.575012   -0.522964    0.033850
      8          8           0        2.602982   -0.515934   -0.701281
      9          8           0        0.984427   -1.426755    0.605397
     10          1           0       -4.140484   -1.187690   -0.360255
     11          1           0       -3.500295    0.048402   -1.592619
     12          1           0       -2.233351   -0.736435    1.127290
     13          1           0       -0.164190    2.070390    1.097714
     14          1           0       -0.218323    0.398267    1.710395
     15          3           0        2.531988    1.312258   -1.045504
 ---------------------------------------------------------------------

 SCF Done:  E(UM062X) =  -427.234743180     A.U. after    1 cycles

 The electronic state is 2-A.
 Alpha  occ. eigenvalues --  -19.67659 -19.60700 -19.60479 -10.69341 -10.59895
 Alpha  occ. eigenvalues --  -10.55888 -10.55298 -10.55164  -2.14500  -1.22536
 Alpha  occ. eigenvalues --   -1.12193  -1.09161  -0.90673  -0.82742  -0.73362
 Alpha  occ. eigenvalues --   -0.63712  -0.63213  -0.56369  -0.55926  -0.55454
 Alpha  occ. eigenvalues --   -0.51375  -0.50911  -0.48649  -0.45526  -0.42841
 Alpha  occ. eigenvalues --   -0.41238  -0.38793  -0.37042  -0.36384  -0.34036
 Alpha  occ. eigenvalues --   -0.33644  -0.23853
 Alpha virt. eigenvalues --   -0.01093   0.00304   0.00307   0.00391   0.03135
 Alpha virt. eigenvalues --    0.04541   0.05139   0.05462   0.05546   0.06090
 Alpha virt. eigenvalues --    0.06468   0.06847   0.07519   0.08225   0.08826

  Beta  occ. eigenvalues --  -19.67587 -19.60694 -19.60474 -10.69341 -10.59938
  Beta  occ. eigenvalues --  -10.55502 -10.55420 -10.54764  -2.14500  -1.22435
  Beta  occ. eigenvalues --   -1.12054  -1.09136  -0.89531  -0.81813  -0.71844
  Beta  occ. eigenvalues --   -0.63069  -0.62831  -0.56225  -0.55504  -0.55144
  Beta  occ. eigenvalues --   -0.50940  -0.50266  -0.48300  -0.44989  -0.42571
  Beta  occ. eigenvalues --   -0.40945  -0.37375  -0.36346  -0.34640  -0.33754
  Beta  occ. eigenvalues --   -0.33439
  Beta virt. eigenvalues --   -0.04624  -0.01017   0.00364   0.00463   0.00494
  Beta virt. eigenvalues --    0.03132   0.04623   0.05235   0.05379   0.05516
  Beta virt. eigenvalues --    0.06065   0.06494   0.06711   0.07496   0.08352

 Mulliken charges and spin densities:
               1          2
     1  C   -0.454653   0.736522
     2  C   -0.108210  -0.353144
     3  C   -0.048305   0.726671
     4  H    0.180685  -0.034143
     5  C   -0.225516  -0.055294
     6  O   -0.436732   0.016956
     7  C    0.672097  -0.004174
     8  O   -0.575654   0.000819
     9  O   -0.630061   0.002536
    10  H    0.183218  -0.035352
    11  H    0.180056  -0.033686
    12  H    0.179527   0.009859
    13  H    0.191006   0.020606
    14  H    0.183479   0.001077
    15  Li   0.709064   0.000746
 Sum of Mulliken charges =   0.00000   1.00000

 Dipole moment (field-independent basis, Debye):
    X=              0.5741    Y=              9.3609    Z=             -2.6881  Tot=              9.7562
 Quadrupole moment (field-independent basis, Debye-Ang):
   XX=            -43.3406   YY=            -47.8254   ZZ=            -44.3662
   XY=             20.0361   XZ=             -5.4304   YZ=             -5.6381

  Exact polarizability: 127.601  20.870  93.681   4.747  -0.242  85.728
 Approx polarizability:  98.599  15.491  80.606  -0.072  -2.785  74.464

                      1                      2                      3
                      A                      A                      A
 Frequencies --     54.6595                74.8003               116.1118
 Red. masses --      5.1451                 6.3364                 2.3774
 Frc consts  --      0.0091                 0.0209                 0.0189
 IR Inten    --      3.4703                63.9346                 0.6441

                      4                      5                      6
                      A                      A                      A
 Frequencies --    155.3610               190.5280               230.0499
 Red. masses --     10.9989                 3.1805                 4.5250
 Frc consts  --      0.1564                 0.0680                 0.1411
 IR Inten    --     35.7935                 0.6462                38.3935

                      7                      8                      9
                      A                      A                      A
 Frequencies --    288.5858               348.6586               415.7626
 Red. masses --      3.7727                 2.7088                 6.0834
 Frc consts  --      0.1851                 0.1940                 0.6196
 IR Inten    --     39.7570                 6.9410                23.7750

                     10                     11                     12
                      A                      A                      A
 Frequencies --    499.5815               508.7820               563.0946
 Red. masses --      5.0966                 2.9474                 1.1765
 Frc consts  --      0.7495                 0.4495                 0.2198
 IR Inten    --    174.8051                34.4959                20.3192

                     13                     14                     15
                      A                      A                      A
 Frequencies --    653.0426               678.9816               777.6095
 Red. masses --      5.9457                 5.9488                 1.4605
 Frc consts  --      1.4940                 1.6158                 0.5203
 IR Inten    --     19.4225                 8.3475                19.6603

                     16                     17                     18
                      A                      A                      A
 Frequencies --    835.2460               844.0959               886.9025
 Red. masses --     11.8182                 1.4512                 6.1363
 Frc consts  --      4.8577                 0.6092                 2.8439
 IR Inten    --     45.3647               137.7590               179.4365

                     19                     20                     21
                      A                      A                      A
 Frequencies --    934.1693               986.6571              1011.8874
 Red. masses --      1.9153                 1.4442                 1.1779
 Frc consts  --      0.9848                 0.8284                 0.7106
 IR Inten    --     71.9125                70.9938                54.0373

                     22                     23                     24
                      A                      A                      A
 Frequencies --   1093.9453              1160.9466              1173.1828
 Red. masses --     10.0167                 2.5216                 1.8723
 Frc consts  --      7.0627                 2.0024                 1.5183
 IR Inten    --    386.7663                57.6878                13.4240

                     25                     26                     27
                      A                      A                      A
 Frequencies --   1281.5982              1288.5021              1334.1749
 Red. masses --      1.7834                 1.3547                 3.8802
 Frc consts  --      1.7258                 1.3251                 4.0694
 IR Inten    --      1.5749                28.0970               391.5184

                     28                     29                     30
                      A                      A                      A
 Frequencies --   1344.8760              1415.0745              1473.1346
 Red. masses --      1.4120                 1.4405                 1.1053
 Frc consts  --      1.5047                 1.6995                 1.4132
 IR Inten    --    112.6464                82.7898                44.9650

                     31                     32                     33
                      A                      A                      A
 Frequencies --   1500.0178              1502.3942              1831.0081
 Red. masses --      2.1525                 1.5790                12.5708
 Frc consts  --      2.8536                 2.1000                24.8311
 IR Inten    --      7.0995                 2.4127              1020.3583

                     34                     35                     36
                      A                      A                      A
 Frequencies --   3104.5636              3163.1539              3167.2362
 Red. masses --      1.0602                 1.1006                 1.0700
 Frc consts  --      6.0204                 6.4882                 6.3240
 IR Inten    --     39.8499                 7.0112                 9.5533

                     37                     38                     39
                      A                      A                      A
 Frequencies --   3172.3573              3183.6182              3273.7178
 Red. masses --      1.0782                 1.0881                 1.1185
 Frc consts  --      6.3932                 6.4979                 7.0626
 IR Inten    --      4.6045                29.6676                 7.9263

 - Thermochemistry -
 -------------------
 Temperature   298.150 Kelvin.  Pressure   1.00000 Atm.
 Atom     1 has atomic number  6 and mass  12.00000

 Molecular mass:   121.04770 amu.
 Principal axes and moments of inertia in atomic units:
                           1         2         3
     Eigenvalues --   487.479131854.074802026.22539
           X            0.99983   0.00102   0.01821
           Y           -0.00198   0.99860   0.05294
           Z           -0.01813  -0.05297   0.99843
 This molecule is an asymmetric top.
 Rotational symmetry number  1.
 Warning -- assumption of classical behavior for rotation
           may cause significant error
 Rotational temperatures (Kelvin)      0.17768     0.04672     0.04275
 Rotational constants (GHZ):           3.70219     0.97339     0.89069
 Zero-point vibrational energy     278239.8 (Joules/Mol)
                                   66.50092 (Kcal/Mol)
 Warning -- explicit consideration of  12 degrees of freedom as
           vibrations may cause significant error
 Vibrational temperatures:     78.64   107.62   167.06   223.53   274.13
          (Kelvin)            330.99   415.21   501.64   598.19   718.79
                              732.02   810.17   939.58   976.90  1118.81
                             1201.73  1214.46  1276.05  1344.06  1419.58
                             1455.88  1573.94  1670.34  1687.95  1843.93
                             1853.86  1919.58  1934.97  2035.97  2119.51
                             2158.19  2161.61  2634.41  4466.77  4551.07
                             4556.94  4564.31  4580.51  4710.14

 Zero-point correction=                           0.105976 (Hartree/Particle)
 Thermal correction to Energy=                    0.115345
 Thermal correction to Enthalpy=                  0.116289
 Thermal correction to Gibbs Free Energy=         0.070380
 Sum of electronic and zero-point Energies=           -427.128767
 Sum of electronic and thermal Energies=              -427.119398
 Sum of electronic and thermal Enthalpies=            -427.118454
 Sum of electronic and thermal Free Energies=         -427.164363

                     E (Thermal)             CV                S
                      KCal/Mol        Cal/Mol-Kelvin    Cal/Mol-Kelvin
 Total                   72.380             32.736             96.625
 Electronic               0.000              0.000              1.377
 Translational            0.889              2.981             40.287
 Rotational               0.889              2.981             28.995
 Vibrational             70.603             26.775             25.966
 Vibration     1          0.596              1.976              4.641
 Vibration     2          0.599              1.966              4.023
 Vibration     3          0.608              1.936              3.164
 Vibration     4          0.620              1.897              2.606
 Vibration     5          0.634              1.853              2.223
 Vibration     6          0.652              1.795              1.879
 Vibration     7          0.685              1.695              1.482
 Vibration     8          0.726              1.578              1.172
 Vibration     9          0.779              1.436              0.906
 Vibration    10          0.855              1.251              0.659
 Vibration    11          0.864              1.231              0.637
 Vibration    12          0.919              1.111              0.518

 Normal termination of Gaussian 09 at Mon May 16 18:47:40 2022.
