 Gaussian 09, Revision D.01,
 Gaussian 09:  EM64L-G09RevD.01 24-Apr-2013

 ----------------------------------------------------------------------
 #P M062X/6-31+G** EmpiricalDispersion=GD3 SCRF(SMD,solvent=DiMethylSul
 foxide) Opt Freq
 ----------------------------------------------------------------------

 --------
 872-36-6
 --------
 Symbolic Z-matrix:
 Charge =  1 Multiplicity = 1

 SCF Done:  E(RM062X) =  -348.475858168     A.U. after   12 cycles
 SCF Done:  E(RM062X) =  -348.481900700     A.U. after   11 cycles
 SCF Done:  E(RM062X) =  -348.483440646     A.U. after   11 cycles
 SCF Done:  E(RM062X) =  -348.484054658     A.U. after   10 cycles
 SCF Done:  E(RM062X) =  -348.485131906     A.U. after   11 cycles
 SCF Done:  E(RM062X) =  -348.486470114     A.U. after   10 cycles
 SCF Done:  E(RM062X) =  -348.485655241     A.U. after   11 cycles
 SCF Done:  E(RM062X) =  -348.484666693     A.U. after   11 cycles
 SCF Done:  E(RM062X) =  -348.486574944     A.U. after    7 cycles
 SCF Done:  E(RM062X) =  -348.488516846     A.U. after   11 cycles
 SCF Done:  E(RM062X) =  -348.489238798     A.U. after   10 cycles
 SCF Done:  E(RM062X) =  -348.489226182     A.U. after   10 cycles
 SCF Done:  E(RM062X) =  -348.488969180     A.U. after   10 cycles
 SCF Done:  E(RM062X) =  -348.489394412     A.U. after   10 cycles
 SCF Done:  E(RM062X) =  -348.489407062     A.U. after    9 cycles
 SCF Done:  E(RM062X) =  -348.489412833     A.U. after    8 cycles
 SCF Done:  E(RM062X) =  -348.489417753     A.U. after    8 cycles
 SCF Done:  E(RM062X) =  -348.489419527     A.U. after    9 cycles
 Optimization completed.
    -- Stationary point found.
 Normal termination of Gaussian 09 at Mon May 16 17:27:55 2022.

 ----------------------------------------------------------------------
 #P Geom=AllCheck Guess=TCheck SCRF=Check GenChk RM062X/6-31+G(d,p) Fre
 q
 ----------------------------------------------------------------------

 Structure from the checkpoint file:  "/gpfs/data/yqi27/cgu13/CHEM1560Q/Gaussian/872-36-6/inp6/Gau-246365.chk"
 --------
 872-36-6
 --------
 Charge =  1 Multiplicity = 1

                         Standard orientation:
 ---------------------------------------------------------------------
 Center     Atomic      Atomic             Coordinates (Angstroms)
 Number     Number       Type             X           Y           Z
 ---------------------------------------------------------------------
      1          8           0        2.101902    0.000158    0.376847
      2          6           0        0.945222    0.000062    0.074707
      3          8           0        0.178133    1.098058   -0.122385
      4          6           0       -1.093733    0.666733   -0.444253
      5          6           0       -1.093612   -0.667079   -0.444038
      6          8           0        0.178272   -1.098119   -0.122065
      7          1           0       -1.839387    1.411847   -0.679429
      8          1           0       -1.839164   -1.412380   -0.678935
      9          3           0       -2.845056    0.000486    1.726898
 ---------------------------------------------------------------------

 SCF Done:  E(RM062X) =  -348.489419527     A.U. after    1 cycles

 The electronic state is 1-A.
 Alpha  occ. eigenvalues --  -19.74839 -19.74837 -19.66335 -10.76064 -10.64467
 Alpha  occ. eigenvalues --  -10.64355  -2.22529  -1.34197  -1.21739  -1.19626
 Alpha  occ. eigenvalues --   -0.90424  -0.77810  -0.74792  -0.64555  -0.62935
 Alpha  occ. eigenvalues --   -0.57835  -0.55432  -0.51127  -0.50267  -0.49294
 Alpha  occ. eigenvalues --   -0.46400  -0.40603  -0.32760
 Alpha virt. eigenvalues --   -0.01758  -0.00076   0.00332   0.00380   0.01712
 Alpha virt. eigenvalues --    0.02200   0.03558   0.04851   0.05207   0.05320
 Alpha virt. eigenvalues --    0.05786   0.06443   0.06527   0.07346   0.08368

 Mulliken charges:
               1
     1  O   -0.540180
     2  C    0.759740
     3  O   -0.355516
     4  C    0.007870
     5  C    0.007912
     6  O   -0.355520
     7  H    0.277844
     8  H    0.277834
     9  Li   0.920015
 Sum of Mulliken charges =   1.00000

 Dipole moment (field-independent basis, Debye):
    X=            -19.1735    Y=              0.0014    Z=              6.1614  Tot=             20.1391
 Quadrupole moment (field-independent basis, Debye-Ang):
   XX=              2.0521   YY=            -32.6071   ZZ=            -18.8298
   XY=             -0.0062   XZ=            -22.2912   YZ=              0.0039

  Exact polarizability:  63.668   0.001  52.004   6.240  -0.002  34.077
 Approx polarizability:  58.564   0.000  55.263   5.463  -0.003  33.634

                      1                      2                      3
                      A                      A                      A
 Frequencies --    143.5996               153.2245               264.6120
 Red. masses --      7.4978                 8.4370                 7.1846
 Frc consts  --      0.0911                 0.1167                 0.2964
 IR Inten    --     31.9941                45.6120               199.2252

                      4                      5                      6
                      A                      A                      A
 Frequencies --    277.4652               537.7156               579.6179
 Red. masses --      6.0359                 8.7786                 4.2041
 Frc consts  --      0.2738                 1.4955                 0.8322
 IR Inten    --     10.1576                 0.0262                 0.4436

                      7                      8                      9
                      A                      A                      A
 Frequencies --    751.4785               759.8635               798.3094
 Red. masses --      2.1655                 8.9436                 2.3675
 Frc consts  --      0.7205                 3.0425                 0.8890
 IR Inten    --    140.3160                29.4598                 9.9981

                     10                     11                     12
                      A                      A                      A
 Frequencies --    872.8365               919.2451               955.5593
 Red. masses --      1.3055                 8.1136                 4.8283
 Frc consts  --      0.5860                 4.0395                 2.5975
 IR Inten    --      7.9201                 8.5516                26.2859

                     13                     14                     15
                      A                      A                      A
 Frequencies --   1112.6381              1137.6316              1147.0159
 Red. masses --      3.8300                 1.7170                 2.7968
 Frc consts  --      2.7936                 1.3093                 2.1680
 IR Inten    --     21.5091                 6.9785               167.0642

                     16                     17                     18
                      A                      A                      A
 Frequencies --   1214.5921              1394.4688              1690.3967
 Red. masses --      3.2853                 2.3621                 5.5815
 Frc consts  --      2.8556                 2.7062                 9.3967
 IR Inten    --    324.4447                78.0303                 7.8639

                     19                     20                     21
                      A                      A                      A
 Frequencies --   1918.7040              3304.9259              3327.6060
 Red. masses --     12.9546                 1.0935                 1.1180
 Frc consts  --     28.0990                 7.0368                 7.2936
 IR Inten    --   1169.9319                72.0774                26.0435

 - Thermochemistry -
 -------------------
 Temperature   298.150 Kelvin.  Pressure   1.00000 Atm.
 Atom     1 has atomic number  8 and mass  15.99491

 Molecular mass:    93.01640 amu.
 Principal axes and moments of inertia in atomic units:
                           1         2         3
     Eigenvalues --   293.47470 728.54125 815.50595
           X            0.99868   0.00002   0.05137
           Y           -0.00002   1.00000  -0.00004
           Z           -0.05137   0.00004   0.99868
 This molecule is an asymmetric top.
 Rotational symmetry number  1.
 Rotational temperatures (Kelvin)      0.29513     0.11889     0.10621
 Rotational constants (GHZ):           6.14956     2.47720     2.21303
 Zero-point vibrational energy     139134.7 (Joules/Mol)
                                   33.25399 (Kcal/Mol)
 Warning -- explicit consideration of   6 degrees of freedom as
           vibrations may cause significant error
 Vibrational temperatures:    206.61   220.46   380.72   399.21   773.65
          (Kelvin)            833.94  1081.21  1093.27  1148.59  1255.82
                             1322.59  1374.83  1600.84  1636.80  1650.30
                             1747.52  2006.33  2432.10  2760.58  4755.05
                             4787.68

 Zero-point correction=                           0.052994 (Hartree/Particle)
 Thermal correction to Energy=                    0.058912
 Thermal correction to Enthalpy=                  0.059857
 Thermal correction to Gibbs Free Energy=         0.023218
 Sum of electronic and zero-point Energies=           -348.436426
 Sum of electronic and thermal Energies=              -348.430507
 Sum of electronic and thermal Enthalpies=            -348.429563
 Sum of electronic and thermal Free Energies=         -348.466201

                     E (Thermal)             CV                S
                      KCal/Mol        Cal/Mol-Kelvin    Cal/Mol-Kelvin
 Total                   36.968             20.131             77.111
 Electronic               0.000              0.000              0.000
 Translational            0.889              2.981             39.502
 Rotational               0.889              2.981             26.658
 Vibrational             35.191             14.170             10.951
 Vibration     1          0.616              1.910              2.755
 Vibration     2          0.619              1.899              2.632
 Vibration     3          0.671              1.738              1.631
 Vibration     4          0.678              1.715              1.549
 Vibration     5          0.893              1.167              0.570
 Vibration     6          0.936              1.075              0.486

 Optimization completed.
    -- Stationary point found.
 Normal termination of Gaussian 09 at Mon May 16 17:28:32 2022.
