 Gaussian 09, Revision D.01,
 Gaussian 09:  EM64L-G09RevD.01 24-Apr-2013

 ----------------------------------------------------------------------
 #P M062X/6-31+G** EmpiricalDispersion=GD3 SCRF(SMD,solvent=DiMethylSul
 foxide) Opt Freq
 ----------------------------------------------------------------------

 --------
 872-36-6
 --------
 Symbolic Z-matrix:
 Charge =  0 Multiplicity = 2

 SCF Done:  E(UM062X) =  -348.524784117     A.U. after   28 cycles
 SCF Done:  E(UM062X) =  -348.537983725     A.U. after   17 cycles
 SCF Done:  E(UM062X) =  -348.538967237     A.U. after   17 cycles
 SCF Done:  E(UM062X) =  -348.539029623     A.U. after   16 cycles
 SCF Done:  E(UM062X) =  -348.539227502     A.U. after   17 cycles
 SCF Done:  E(UM062X) =  -348.521865477     A.U. after   20 cycles
 SCF Done:  E(UM062X) =  -348.539411114     A.U. after   15 cycles
 SCF Done:  E(UM062X) =  -348.542521201     A.U. after   25 cycles
 SCF Done:  E(UM062X) =  -348.541361008     A.U. after   19 cycles
 SCF Done:  E(UM062X) =  -348.545862740     A.U. after   18 cycles
 SCF Done:  E(UM062X) =  -348.547670455     A.U. after   15 cycles
 SCF Done:  E(UM062X) =  -348.551146759     A.U. after   17 cycles
 SCF Done:  E(UM062X) =  -348.556400951     A.U. after   18 cycles
 SCF Done:  E(UM062X) =  -348.558211844     A.U. after   17 cycles
 SCF Done:  E(UM062X) =  -348.560161680     A.U. after   15 cycles
 SCF Done:  E(UM062X) =  -348.560542709     A.U. after   15 cycles
 SCF Done:  E(UM062X) =  -348.560532590     A.U. after   14 cycles
 SCF Done:  E(UM062X) =  -348.560608743     A.U. after   13 cycles
 SCF Done:  E(UM062X) =  -348.560610446     A.U. after   12 cycles
 Optimization completed.
    -- Stationary point found.
 Normal termination of Gaussian 09 at Mon May 16 18:09:53 2022.

 ----------------------------------------------------------------------
 #P Geom=AllCheck Guess=TCheck SCRF=Check GenChk UM062X/6-31+G(d,p) Fre
 q
 ----------------------------------------------------------------------

 Structure from the checkpoint file:  "/gpfs/data/yqi27/cgu13/CHEM1560Q/Gaussian/872-36-6/opt_inp/Gau-69196.chk"
 --------
 872-36-6
 --------
 Charge =  0 Multiplicity = 2

                         Standard orientation:
 ---------------------------------------------------------------------
 Center     Atomic      Atomic             Coordinates (Angstroms)
 Number     Number       Type             X           Y           Z
 ---------------------------------------------------------------------
      1          8           0        1.737808    0.000029    0.000565
      2          6           0        0.503925    0.000025    0.000173
      3          8           0       -0.223037   -1.089698    0.027537
      4          6           0       -1.612743   -0.703071   -0.169308
      5          6           0       -1.612782    0.703011    0.169034
      6          8           0       -0.223000    1.089757   -0.027551
      7          1           0       -2.263766   -1.415436    0.334321
      8          1           0       -2.263744    1.415330   -0.334726
      9          3           0        3.507648   -0.000130   -0.001132
 ---------------------------------------------------------------------

 SCF Done:  E(UM062X) =  -348.560610446     A.U. after    1 cycles

 The electronic state is 2-A.
 Alpha  occ. eigenvalues --  -19.70313 -19.70310 -19.65052 -10.73854 -10.56327
 Alpha  occ. eigenvalues --  -10.56273  -2.17581  -1.29867  -1.16956  -1.16144
 Alpha  occ. eigenvalues --   -0.83532  -0.73060  -0.68253  -0.61235  -0.59818
 Alpha  occ. eigenvalues --   -0.52896  -0.52726  -0.45578  -0.44955  -0.43170
 Alpha  occ. eigenvalues --   -0.42865  -0.39503  -0.30617  -0.15759
 Alpha virt. eigenvalues --   -0.01278   0.00488   0.00509   0.00544   0.02920
 Alpha virt. eigenvalues --    0.04933   0.05186   0.05628   0.06458   0.06809
 Alpha virt. eigenvalues --    0.07146   0.08098   0.08607   0.10135   0.11381

  Beta  occ. eigenvalues --  -19.70193 -19.70190 -19.65077 -10.73874 -10.55890
  Beta  occ. eigenvalues --  -10.55833  -2.17581  -1.29583  -1.16521  -1.16109
  Beta  occ. eigenvalues --   -0.82342  -0.72138  -0.67768  -0.61033  -0.59160
  Beta  occ. eigenvalues --   -0.52297  -0.51673  -0.45303  -0.43402  -0.42422
  Beta  occ. eigenvalues --   -0.41798  -0.39391  -0.25444
  Beta virt. eigenvalues --   -0.01498  -0.00136   0.00645   0.00762   0.02093
  Beta virt. eigenvalues --    0.03031   0.04352   0.04728   0.04984   0.05682
  Beta virt. eigenvalues --    0.05708   0.06645   0.07541   0.08610   0.09036

 Mulliken charges and spin densities:
               1          2
     1  O   -0.503033  -0.007869
     2  C    0.795311  -0.103748
     3  O   -0.382420   0.017818
     4  C   -0.331662   0.528318
     5  C   -0.331843   0.528434
     6  O   -0.382425   0.017815
     7  H    0.156881   0.010601
     8  H    0.156870   0.010597
     9  Li   0.822322  -0.001966
 Sum of Mulliken charges =   0.00000   1.00000

 Dipole moment (field-independent basis, Debye):
    X=             14.5870    Y=             -0.0008    Z=             -0.0060  Tot=             14.5870
 Quadrupole moment (field-independent basis, Debye-Ang):
   XX=              5.8477   YY=            -40.7130   ZZ=            -40.5526
   XY=             -0.0017   XZ=             -0.0211   YZ=             -3.3936

  Exact polarizability:  84.055  -0.003  81.691   0.000  26.954  80.302
 Approx polarizability:  69.377   0.000  64.592   0.003  10.053  52.438

                      1                      2                      3
                      A                      A                      A
 Frequencies --     86.5286               109.9449               244.1342
 Red. masses --      7.7776                 7.5156                 7.3792
 Frc consts  --      0.0343                 0.0535                 0.2591
 IR Inten    --     93.0481                83.1641                 6.2018

                      4                      5                      6
                      A                      A                      A
 Frequencies --    265.3934               502.8129               508.1712
 Red. masses --      2.6687                 7.3628                 6.7578
 Frc consts  --      0.1107                 1.0967                 1.0282
 IR Inten    --     46.9823               192.9678                35.4709

                      7                      8                      9
                      A                      A                      A
 Frequencies --    615.9643               777.8195               790.2451
 Red. masses --      1.7769                12.4536                11.3257
 Frc consts  --      0.3972                 4.4392                 4.1672
 IR Inten    --    547.0046                37.5868               147.9886

                     10                     11                     12
                      A                      A                      A
 Frequencies --    842.1860               902.8802               948.0580
 Red. masses --      5.1120                 1.9481                 5.3094
 Frc consts  --      2.1363                 0.9357                 2.8117
 IR Inten    --    110.5211                14.6880                92.7898

                     13                     14                     15
                      A                      A                      A
 Frequencies --   1026.8521              1055.1433              1177.3287
 Red. masses --      3.6204                 1.5198                 6.9875
 Frc consts  --      2.2491                 0.9969                 5.7065
 IR Inten    --      5.9556                 0.4481                79.6249

                     16                     17                     18
                      A                      A                      A
 Frequencies --   1209.0745              1378.6605              1436.7313
 Red. masses --      1.4513                 2.6923                 4.3043
 Frc consts  --      1.2500                 3.0150                 5.2349
 IR Inten    --     65.0905                15.7232               214.9232

                     19                     20                     21
                      A                      A                      A
 Frequencies --   1774.4927              3156.9792              3164.6723
 Red. masses --     12.7962                 1.0884                 1.0927
 Frc consts  --     23.7400                 6.3910                 6.4480
 IR Inten    --   1681.9058                20.9866                24.1733

 - Thermochemistry -
 -------------------
 Temperature   298.150 Kelvin.  Pressure   1.00000 Atm.
 Atom     1 has atomic number  8 and mass  15.99491

 Molecular mass:    93.01640 amu.
 Principal axes and moments of inertia in atomic units:
                           1         2         3
     Eigenvalues --   195.78436 757.92857 947.14202
           X            1.00000   0.00001   0.00002
           Y            0.00000   0.99984  -0.01774
           Z           -0.00002   0.01774   0.99984
 This molecule is an asymmetric top.
 Rotational symmetry number  1.
 Rotational temperatures (Kelvin)      0.44239     0.11428     0.09145
 Rotational constants (GHZ):           9.21800     2.38115     1.90546
 Zero-point vibrational energy     131434.1 (Joules/Mol)
                                   31.41351 (Kcal/Mol)
 Warning -- explicit consideration of   7 degrees of freedom as
           vibrations may cause significant error
 Vibrational temperatures:    124.50   158.19   351.25   381.84   723.43
          (Kelvin)            731.14   886.23  1119.11  1136.99  1211.72
                             1299.04  1364.04  1477.41  1518.11  1693.91
                             1739.59  1983.58  2067.13  2553.10  4542.18
                             4553.25

 Zero-point correction=                           0.050061 (Hartree/Particle)
 Thermal correction to Energy=                    0.056366
 Thermal correction to Enthalpy=                  0.057311
 Thermal correction to Gibbs Free Energy=         0.019018
 Sum of electronic and zero-point Energies=           -348.510550
 Sum of electronic and thermal Energies=              -348.504244
 Sum of electronic and thermal Enthalpies=            -348.503300
 Sum of electronic and thermal Free Energies=         -348.541593

                     E (Thermal)             CV                S
                      KCal/Mol        Cal/Mol-Kelvin    Cal/Mol-Kelvin
 Total                   35.371             21.040             80.594
 Electronic               0.000              0.000              1.377
 Translational            0.889              2.981             39.502
 Rotational               0.889              2.981             26.444
 Vibrational             33.593             15.079             13.271
 Vibration     1          0.601              1.959              3.737
 Vibration     2          0.606              1.941              3.270
 Vibration     3          0.659              1.772              1.773
 Vibration     4          0.671              1.736              1.626
 Vibration     5          0.858              1.244              0.651
 Vibration     6          0.863              1.232              0.638
 Vibration     7          0.976              0.998              0.423

 Optimization completed.
    -- Stationary point found.
 Normal termination of Gaussian 09 at Mon May 16 18:10:47 2022.
