 Gaussian 09, Revision D.01,
 Gaussian 09:  EM64L-G09RevD.01 24-Apr-2013

 ----------------------------------------------------------------------
 #P M062X/6-31+G** EmpiricalDispersion=GD3 SCRF(SMD,solvent=DiMethylSul
 foxide) Opt Freq
 ----------------------------------------------------------------------

 ---------
 4427-96-7
 ---------
 Symbolic Z-matrix:
 Charge =  1 Multiplicity = 1

 SCF Done:  E(RM062X) =  -427.080006836     A.U. after   13 cycles
 SCF Done:  E(RM062X) =  -427.084851260     A.U. after   12 cycles
 SCF Done:  E(RM062X) =  -427.085506954     A.U. after   11 cycles
 SCF Done:  E(RM062X) =  -427.088068634     A.U. after   12 cycles
 SCF Done:  E(RM062X) =  -427.094893549     A.U. after   12 cycles
 SCF Done:  E(RM062X) =  -427.093911994     A.U. after   12 cycles
 SCF Done:  E(RM062X) =  -427.096736503     A.U. after   10 cycles
 SCF Done:  E(RM062X) =  -427.097663207     A.U. after   12 cycles
 SCF Done:  E(RM062X) =  -427.098025594     A.U. after   12 cycles
 SCF Done:  E(RM062X) =  -427.098437924     A.U. after   11 cycles
 SCF Done:  E(RM062X) =  -427.099266220     A.U. after    9 cycles
 SCF Done:  E(RM062X) =  -427.099269720     A.U. after    9 cycles
 SCF Done:  E(RM062X) =  -427.099271209     A.U. after    8 cycles
 SCF Done:  E(RM062X) =  -427.099273910     A.U. after    9 cycles
 SCF Done:  E(RM062X) =  -427.099275334     A.U. after    9 cycles
 SCF Done:  E(RM062X) =  -427.099275592     A.U. after    8 cycles
 SCF Done:  E(RM062X) =  -427.099275461     A.U. after    8 cycles
 SCF Done:  E(RM062X) =  -427.099275609     A.U. after    8 cycles
 SCF Done:  E(RM062X) =  -427.099275544     A.U. after    7 cycles
 Optimization completed.
    -- Stationary point found.
 Normal termination of Gaussian 09 at Mon May 16 17:05:31 2022.

 ----------------------------------------------------------------------
 #P Geom=AllCheck Guess=TCheck SCRF=Check GenChk RM062X/6-31+G(d,p) Fre
 q
 ----------------------------------------------------------------------

 Structure from the checkpoint file:  "/gpfs/data/yqi27/cgu13/CHEM1560Q/Gaussian/4427-96-7/inp2/Gau-97856.chk"
 ---------
 4427-96-7
 ---------
 Charge =  1 Multiplicity = 1

                         Standard orientation:
 ---------------------------------------------------------------------
 Center     Atomic      Atomic             Coordinates (Angstroms)
 Number     Number       Type             X           Y           Z
 ---------------------------------------------------------------------
      1          6           0       -3.000928    0.295248    0.181336
      2          6           0       -1.896883   -0.174035   -0.404017
      3          6           0       -0.638453   -0.417724    0.367724
      4          1           0       -0.819859   -0.465229    1.444469
      5          6           0        0.253451   -1.554096   -0.126230
      6          8           0        1.584811   -1.004526   -0.008506
      7          6           0        1.535433    0.322627    0.026182
      8          8           0        2.466498    1.069397   -0.023666
      9          8           0        0.239109    0.738757    0.138043
     10          1           0       -3.892920    0.512584   -0.398564
     11          1           0       -3.042990    0.460991    1.256070
     12          1           0       -1.852420   -0.349264   -1.478660
     13          1           0        0.192184   -2.446467    0.493055
     14          1           0        0.074615   -1.794238   -1.177132
     15          3           0       -0.832558    2.273492   -0.418725
 ---------------------------------------------------------------------

 SCF Done:  E(RM062X) =  -427.099275544     A.U. after    1 cycles

 The electronic state is 1-A.
 Alpha  occ. eigenvalues --  -19.74147 -19.72551 -19.66614 -10.76237 -10.64709
 Alpha  occ. eigenvalues --  -10.62963 -10.57914 -10.57487  -2.20162  -1.31956
 Alpha  occ. eigenvalues --   -1.19981  -1.19191  -0.93789  -0.86389  -0.78294
 Alpha  occ. eigenvalues --   -0.72935  -0.68410  -0.64143  -0.61774  -0.59726
 Alpha  occ. eigenvalues --   -0.55185  -0.53618  -0.53270  -0.52024  -0.49577
 Alpha  occ. eigenvalues --   -0.46249  -0.44396  -0.41279  -0.40558  -0.39655
 Alpha  occ. eigenvalues --   -0.36015
 Alpha virt. eigenvalues --   -0.01486  -0.00892   0.00107   0.00188   0.00412
 Alpha virt. eigenvalues --    0.02648   0.04149   0.04432   0.04780   0.05037
 Alpha virt. eigenvalues --    0.05444   0.05852   0.06256   0.06696   0.07333

 Mulliken charges:
               1
     1  C   -0.342725
     2  C   -0.021902
     3  C   -0.023837
     4  H    0.242869
     5  C   -0.214527
     6  O   -0.388786
     7  C    0.754826
     8  O   -0.507619
     9  O   -0.423809
    10  H    0.210198
    11  H    0.207266
    12  H    0.224259
    13  H    0.236477
    14  H    0.224175
    15  Li   0.823134
 Sum of Mulliken charges =   1.00000

 Dipole moment (field-independent basis, Debye):
    X=            -10.0681    Y=              5.0951    Z=             -1.4186  Tot=             11.3727
 Quadrupole moment (field-independent basis, Debye-Ang):
   XX=            -47.1491   YY=            -23.5356   ZZ=            -40.8563
   XY=            -12.3706   XZ=              1.1673   YZ=             -3.9736

  Exact polarizability: 104.498   0.399  77.867  -6.870   3.170  69.225
 Approx polarizability:  88.909   1.278  71.874  -6.159   2.443  61.898

                      1                      2                      3
                      A                      A                      A
 Frequencies --     71.3385                96.2544               125.5724
 Red. masses --      4.3197                 4.2406                 4.9099
 Frc consts  --      0.0130                 0.0231                 0.0456
 IR Inten    --     61.3528                12.2743                44.6232

                      4                      5                      6
                      A                      A                      A
 Frequencies --    165.1131               183.8438               283.2200
 Red. masses --      5.9915                 4.5869                 2.1729
 Frc consts  --      0.0962                 0.0913                 0.1027
 IR Inten    --     72.9577                38.6419                 4.7918

                      7                      8                      9
                      A                      A                      A
 Frequencies --    342.1182               363.2682               447.4184
 Red. masses --      6.7276                 2.5032                 4.3096
 Frc consts  --      0.4639                 0.1946                 0.5083
 IR Inten    --    152.1390                 9.5730                12.5701

                     10                     11                     12
                      A                      A                      A
 Frequencies --    541.7862               664.7164               719.3465
 Red. masses --      4.5763                 2.4619                 4.0544
 Frc consts  --      0.7914                 0.6409                 1.2361
 IR Inten    --      0.5411                19.2890                 6.2831

                     13                     14                     15
                      A                      A                      A
 Frequencies --    744.0770               782.7918               906.0634
 Red. masses --      3.4265                12.0463                 3.0524
 Frc consts  --      1.1177                 4.3491                 1.4764
 IR Inten    --     20.4345                47.3929                37.1379

                     16                     17                     18
                      A                      A                      A
 Frequencies --    969.0971               988.1031              1028.0788
 Red. masses --      5.6077                 1.4651                 1.1081
 Frc consts  --      3.1029                 0.8428                 0.6901
 IR Inten    --     12.5312                71.9308               113.9784

                     19                     20                     21
                      A                      A                      A
 Frequencies --   1042.1242              1053.7957              1110.4817
 Red. masses --      1.3744                 3.4002                 8.4229
 Frc consts  --      0.8794                 2.2247                 6.1197
 IR Inten    --     10.5694               120.6663               394.2222

                     22                     23                     24
                      A                      A                      A
 Frequencies --   1116.0967              1200.9246              1223.8850
 Red. masses --      2.3765                 2.0167                 2.8007
 Frc consts  --      1.7442                 1.7137                 2.4717
 IR Inten    --     58.3712                10.2339               359.5679

                     25                     26                     27
                      A                      A                      A
 Frequencies --   1262.6369              1312.0188              1349.9267
 Red. masses --      1.2564                 1.2520                 1.2474
 Frc consts  --      1.1802                 1.2698                 1.3393
 IR Inten    --     33.8323                 4.4539                 7.1052

                     28                     29                     30
                      A                      A                      A
 Frequencies --   1374.1188              1435.6946              1463.8887
 Red. masses --      1.5685                 1.4639                 1.3977
 Frc consts  --      1.7449                 1.7778                 1.7648
 IR Inten    --     83.0156                85.9807                11.2975

                     31                     32                     33
                      A                      A                      A
 Frequencies --   1510.9352              1730.2093              1923.8550
 Red. masses --      1.0961                 4.8445                12.8592
 Frc consts  --      1.4744                 8.5446                28.0420
 IR Inten    --     21.5550                 4.4648              1151.8715

                     34                     35                     36
                      A                      A                      A
 Frequencies --   3136.7661              3150.4570              3170.4657
 Red. masses --      1.0656                 1.0867                 1.0609
 Frc consts  --      6.1775                 6.3549                 6.2830
 IR Inten    --      9.1100                 4.6310                 0.4605

                     37                     38                     39
                      A                      A                      A
 Frequencies --   3184.2413              3226.6580              3275.2899
 Red. masses --      1.0954                 1.1094                 1.1177
 Frc consts  --      6.5439                 6.8055                 7.0644
 IR Inten    --      0.5075                 0.8369                 0.2323

 - Thermochemistry -
 -------------------
 Temperature   298.150 Kelvin.  Pressure   1.00000 Atm.
 Atom     1 has atomic number  6 and mass  12.00000

 Molecular mass:   121.04770 amu.
 Principal axes and moments of inertia in atomic units:
                           1         2         3
     Eigenvalues --   486.858731321.420071712.76176
           X            0.99999  -0.00239  -0.00323
           Y            0.00245   0.99982   0.01877
           Z            0.00318  -0.01877   0.99982
 This molecule is an asymmetric top.
 Rotational symmetry number  1.
 Warning -- assumption of classical behavior for rotation
           may cause significant error
 Rotational temperatures (Kelvin)      0.17790     0.06555     0.05057
 Rotational constants (GHZ):           3.70691     1.36576     1.05370
 Zero-point vibrational energy     291151.2 (Joules/Mol)
                                   69.58680 (Kcal/Mol)
 Warning -- explicit consideration of  10 degrees of freedom as
           vibrations may cause significant error
 Vibrational temperatures:    102.64   138.49   180.67   237.56   264.51
          (Kelvin)            407.49   492.23   522.66   643.73   779.51
                              956.38  1034.98  1070.56  1126.26  1303.62
                             1394.31  1421.66  1479.17  1499.38  1516.18
                             1597.73  1605.81  1727.86  1760.90  1816.65
                             1887.70  1942.24  1977.05  2065.64  2106.21
                             2173.90  2489.38  2767.99  4513.10  4532.80
                             4561.59  4581.41  4642.44  4712.41

 Zero-point correction=                           0.110894 (Hartree/Particle)
 Thermal correction to Energy=                    0.119549
 Thermal correction to Enthalpy=                  0.120493
 Thermal correction to Gibbs Free Energy=         0.077047
 Sum of electronic and zero-point Energies=           -426.988382
 Sum of electronic and thermal Energies=              -426.979727
 Sum of electronic and thermal Enthalpies=            -426.978783
 Sum of electronic and thermal Free Energies=         -427.022229

                     E (Thermal)             CV                S
                      KCal/Mol        Cal/Mol-Kelvin    Cal/Mol-Kelvin
 Total                   75.018             30.121             91.440
 Electronic               0.000              0.000              0.000
 Translational            0.889              2.981             40.287
 Rotational               0.889              2.981             28.490
 Vibrational             73.240             24.160             22.663
 Vibration     1          0.598              1.968              4.116
 Vibration     2          0.603              1.952              3.529
 Vibration     3          0.611              1.927              3.013
 Vibration     4          0.624              1.885              2.490
 Vibration     5          0.631              1.862              2.289
 Vibration     6          0.682              1.705              1.514
 Vibration     7          0.721              1.591              1.202
 Vibration     8          0.737              1.548              1.108
 Vibration     9          0.807              1.367              0.804
 Vibration    10          0.897              1.158              0.561

 Optimization completed.
    -- Stationary point found.
 Normal termination of Gaussian 09 at Mon May 16 17:07:16 2022.
