 Gaussian 09, Revision D.01,
 Gaussian 09:  EM64L-G09RevD.01 24-Apr-2013

 ----------------------------------------------------------------------
 #P M062X/6-31+G** EmpiricalDispersion=GD3 SCRF(SMD,solvent=DiMethylSul
 foxide) Opt Freq
 ----------------------------------------------------------------------

 --------
 872-36-6
 --------
 Symbolic Z-matrix:
 Charge =  1 Multiplicity = 1

 SCF Done:  E(RM062X) =  -348.479950378     A.U. after   13 cycles
 SCF Done:  E(RM062X) =  -348.484751943     A.U. after   12 cycles
 SCF Done:  E(RM062X) =  -348.485539744     A.U. after   11 cycles
 SCF Done:  E(RM062X) =  -348.485694037     A.U. after   10 cycles
 SCF Done:  E(RM062X) =  -348.485866039     A.U. after    9 cycles
 SCF Done:  E(RM062X) =  -348.464478515     A.U. after   13 cycles
 SCF Done:  E(RM062X) =  -348.485864041     A.U. after    6 cycles
 SCF Done:  E(RM062X) =  -348.485865986     A.U. after    1 cycles
 SCF Done:  E(RM062X) =  -348.486716586     A.U. after   11 cycles
 SCF Done:  E(RM062X) =  -348.486955176     A.U. after   11 cycles
 SCF Done:  E(RM062X) =  -348.487190327     A.U. after    7 cycles
 SCF Done:  E(RM062X) =  -348.487190335     A.U. after    8 cycles
 SCF Done:  E(RM062X) =  -348.487190110     A.U. after    9 cycles
 SCF Done:  E(RM062X) =  -348.487188614     A.U. after   11 cycles
 SCF Done:  E(RM062X) =  -348.487190535     A.U. after   10 cycles
 SCF Done:  E(RM062X) =  -348.487186473     A.U. after   11 cycles
 SCF Done:  E(RM062X) =  -348.487190723     A.U. after   12 cycles
 SCF Done:  E(RM062X) =  -348.487190985     A.U. after    9 cycles
 SCF Done:  E(RM062X) =  -348.487191096     A.U. after    9 cycles
 Optimization completed.
    -- Stationary point found.
 Normal termination of Gaussian 09 at Mon May 16 16:54:58 2022.

 ----------------------------------------------------------------------
 #P Geom=AllCheck Guess=TCheck SCRF=Check GenChk RM062X/6-31+G(d,p) Fre
 q
 ----------------------------------------------------------------------

 Structure from the checkpoint file:  "/gpfs/data/yqi27/cgu13/CHEM1560Q/Gaussian/872-36-6/inp2/Gau-224105.chk"
 --------
 872-36-6
 --------
 Charge =  1 Multiplicity = 1

                         Standard orientation:
 ---------------------------------------------------------------------
 Center     Atomic      Atomic             Coordinates (Angstroms)
 Number     Number       Type             X           Y           Z
 ---------------------------------------------------------------------
      1          8           0        0.081424   -1.951187   -0.009969
      2          6           0       -0.196280   -0.785054   -0.006414
      3          8           0        0.687209    0.235895   -0.047956
      4          6           0       -0.036806    1.416816   -0.027609
      5          6           0       -1.327677    1.110244    0.025512
      6          8           0       -1.443892   -0.270225    0.039861
      7          1           0        0.511279    2.344599   -0.055080
      8          1           0       -2.234525    1.692405    0.055544
      9          3           0        5.496633    0.465030    0.065036
 ---------------------------------------------------------------------

 SCF Done:  E(RM062X) =  -348.487191096     A.U. after    1 cycles

 The electronic state is 1-A.
 Alpha  occ. eigenvalues --  -19.73927 -19.73902 -19.65533 -10.75236 -10.62855
 Alpha  occ. eigenvalues --  -10.62739  -2.22630  -1.33245  -1.20715  -1.18668
 Alpha  occ. eigenvalues --   -0.89131  -0.76762  -0.73679  -0.63452  -0.61995
 Alpha  occ. eigenvalues --   -0.56680  -0.54610  -0.50113  -0.49346  -0.48289
 Alpha  occ. eigenvalues --   -0.45318  -0.39838  -0.31217
 Alpha virt. eigenvalues --   -0.01706   0.00306   0.00710   0.00803   0.02152
 Alpha virt. eigenvalues --    0.03415   0.03681   0.04075   0.04994   0.05281
 Alpha virt. eigenvalues --    0.05928   0.06375   0.06730   0.07195   0.07376

 Mulliken charges:
               1
     1  O   -0.559198
     2  C    0.782368
     3  O   -0.369120
     4  C    0.035987
     5  C   -0.040066
     6  O   -0.369039
     7  H    0.258244
     8  H    0.259066
     9  Li   1.001758
 Sum of Mulliken charges =   1.00000

 Dipole moment (field-independent basis, Debye):
    X=             24.8886    Y=              8.4634    Z=              0.3275  Tot=             26.2903
 Quadrupole moment (field-independent basis, Debye-Ang):
   XX=            113.1729   YY=            -33.2638   ZZ=            -33.8812
   XY=             10.1791   XZ=              1.6909   YZ=              0.1045

  Exact polarizability:  52.988  -2.589  63.126  -0.834  -0.115  31.122
 Approx polarizability:  55.352  -0.733  58.238  -0.973  -0.154  30.843

                      1                      2                      3
                      A                      A                      A
 Frequencies --      9.4551                14.1068                32.3199
 Red. masses --      7.4571                 7.2552                 7.1705
 Frc consts  --      0.0004                 0.0009                 0.0044
 IR Inten    --     50.4317               114.7899                57.5762

                      4                      5                      6
                      A                      A                      A
 Frequencies --    246.1234               543.8879               572.5103
 Red. masses --      7.1392                 8.9473                 3.9732
 Frc consts  --      0.2548                 1.5594                 0.7673
 IR Inten    --      1.2814                 0.0527                 0.1826

                      7                      8                      9
                      A                      A                      A
 Frequencies --    750.9667               758.5240               799.3131
 Red. masses --      1.7286                11.7569                 3.1025
 Frc consts  --      0.5743                 3.9855                 1.1679
 IR Inten    --    164.2768                14.3841                 1.3555

                     10                     11                     12
                      A                      A                      A
 Frequencies --    881.2608               919.6512               962.8332
 Red. masses --      1.3249                 8.1401                 5.3011
 Frc consts  --      0.6062                 4.0563                 2.8955
 IR Inten    --      0.7052                10.5048                21.1715

                     13                     14                     15
                      A                      A                      A
 Frequencies --   1105.8720              1138.5267              1161.2503
 Red. masses --      4.4897                 2.1616                 2.7117
 Frc consts  --      3.2350                 1.6508                 2.1545
 IR Inten    --     18.1148                42.5719               170.9631

                     16                     17                     18
                      A                      A                      A
 Frequencies --   1210.1440              1398.4900              1717.5267
 Red. masses --      2.2520                 2.2347                 5.5738
 Frc consts  --      1.9431                 2.5751                 9.6875
 IR Inten    --    272.7046                74.5476                 0.3281

                     19                     20                     21
                      A                      A                      A
 Frequencies --   1907.1039              3328.1883              3353.8974
 Red. masses --     12.8834                 1.0937                 1.1174
 Frc consts  --     27.6076                 7.1380                 7.4058
 IR Inten    --   1187.5242                49.2766                17.3581

 - Thermochemistry -
 -------------------
 Temperature   298.150 Kelvin.  Pressure   1.00000 Atm.
 Atom     1 has atomic number  8 and mass  15.99491

 Molecular mass:    93.01640 amu.
 Principal axes and moments of inertia in atomic units:
                           1         2         3
     Eigenvalues --   424.85419 998.598351422.62350
           X            0.99943  -0.03384  -0.00182
           Y            0.03384   0.99943  -0.00049
           Z            0.00183   0.00043   1.00000
 This molecule is an asymmetric top.
 Rotational symmetry number  1.
 Rotational temperatures (Kelvin)      0.20387     0.08674     0.06088
 Rotational constants (GHZ):           4.24791     1.80727     1.26860
 Zero-point vibrational energy     136445.8 (Joules/Mol)
                                   32.61132 (Kcal/Mol)
 Warning -- explicit consideration of   6 degrees of freedom as
           vibrations may cause significant error
 Vibrational temperatures:     13.60    20.30    46.50   354.12   782.53
          (Kelvin)            823.71  1080.47  1091.35  1150.03  1267.94
                             1323.17  1385.30  1591.10  1638.08  1670.78
                             1741.13  2012.11  2471.13  2743.89  4788.51
                             4825.50

 Zero-point correction=                           0.051969 (Hartree/Particle)
 Thermal correction to Energy=                    0.058877
 Thermal correction to Enthalpy=                  0.059821
 Thermal correction to Gibbs Free Energy=         0.015796
 Sum of electronic and zero-point Energies=           -348.435222
 Sum of electronic and thermal Energies=              -348.428314
 Sum of electronic and thermal Enthalpies=            -348.427370
 Sum of electronic and thermal Free Energies=         -348.471395

                     E (Thermal)             CV                S
                      KCal/Mol        Cal/Mol-Kelvin    Cal/Mol-Kelvin
 Total                   36.946             20.570             92.658
 Electronic               0.000              0.000              0.000
 Translational            0.889              2.981             39.502
 Rotational               0.889              2.981             27.892
 Vibrational             35.168             14.609             25.264
 Vibration     1          0.593              1.987              8.122
 Vibration     2          0.593              1.986              7.328
 Vibration     3          0.594              1.983              5.682
 Vibration     4          0.661              1.769              1.758
 Vibration     5          0.899              1.153              0.557
 Vibration     6          0.929              1.091              0.499

 Normal termination of Gaussian 09 at Mon May 16 16:55:56 2022.
