 Gaussian 09, Revision D.01,
 Gaussian 09:  EM64L-G09RevD.01 24-Apr-2013

 ----------------------------------------------------------------------
 #P M062X/6-31+G** EmpiricalDispersion=GD3 SCRF(SMD,solvent=DiMethylSul
 foxide) Opt Freq
 ----------------------------------------------------------------------

 ---------
 4427-96-7
 ---------
 Symbolic Z-matrix:
 Charge =  1 Multiplicity = 1

 SCF Done:  E(RM062X) =  -427.079277684     A.U. after   13 cycles
 SCF Done:  E(RM062X) =  -427.083411574     A.U. after   12 cycles
 SCF Done:  E(RM062X) =  -427.083567948     A.U. after   11 cycles
 SCF Done:  E(RM062X) =  -427.083633968     A.U. after   11 cycles
 SCF Done:  E(RM062X) =  -427.083600140     A.U. after   12 cycles
 SCF Done:  E(RM062X) =  -427.083726363     A.U. after    9 cycles
 SCF Done:  E(RM062X) =  -427.083924005     A.U. after   11 cycles
 SCF Done:  E(RM062X) =  -427.084411842     A.U. after   12 cycles
 SCF Done:  E(RM062X) =  -427.084656157     A.U. after   10 cycles
 SCF Done:  E(RM062X) =  -427.084494590     A.U. after   12 cycles
 SCF Done:  E(RM062X) =  -427.084908585     A.U. after    9 cycles
 SCF Done:  E(RM062X) =  -427.084915697     A.U. after    9 cycles
 SCF Done:  E(RM062X) =  -427.084916442     A.U. after    8 cycles
 SCF Done:  E(RM062X) =  -427.084916288     A.U. after    7 cycles
 SCF Done:  E(RM062X) =  -427.084916505     A.U. after    7 cycles
 SCF Done:  E(RM062X) =  -427.084917959     A.U. after    8 cycles
 SCF Done:  E(RM062X) =  -427.084922096     A.U. after    9 cycles
 SCF Done:  E(RM062X) =  -427.084924777     A.U. after   10 cycles
 SCF Done:  E(RM062X) =  -427.084916330     A.U. after   10 cycles
 Optimization completed.
    -- Stationary point found.
 Normal termination of Gaussian 09 at Mon May 16 17:51:36 2022.

 ----------------------------------------------------------------------
 #P Geom=AllCheck Guess=TCheck SCRF=Check GenChk RM062X/6-31+G(d,p) Fre
 q
 ----------------------------------------------------------------------

 Structure from the checkpoint file:  "/gpfs/data/yqi27/cgu13/CHEM1560Q/Gaussian/4427-96-7/inp5/Gau-125532.chk"
 ---------
 4427-96-7
 ---------
 Charge =  1 Multiplicity = 1

                         Standard orientation:
 ---------------------------------------------------------------------
 Center     Atomic      Atomic             Coordinates (Angstroms)
 Number     Number       Type             X           Y           Z
 ---------------------------------------------------------------------
      1          6           0        3.070855   -0.721207    0.102381
      2          6           0        1.886414   -0.471382   -0.451983
      3          6           0        0.659098   -0.218658    0.357950
      4          1           0        0.848124   -0.376794    1.424171
      5          6           0       -0.001324    1.138432    0.098807
      6          8           0       -1.405116    0.832557    0.173065
      7          6           0       -1.576523   -0.484376   -0.022201
      8          8           0       -2.644013   -1.015563   -0.163779
      9          8           0       -0.399933   -1.129256   -0.037579
     10          1           0        3.957991   -0.868493   -0.506423
     11          1           0        3.187622   -0.779925    1.182431
     12          1           0        1.766111   -0.409943   -1.533211
     13          1           0        0.239356    1.880883    0.858907
     14          1           0        0.218910    1.518601   -0.903487
     15          3           0        0.381088    4.692305   -0.268591
 ---------------------------------------------------------------------

 SCF Done:  E(RM062X) =  -427.084916330     A.U. after    1 cycles

 The electronic state is 1-A.
 Alpha  occ. eigenvalues --  -19.70919 -19.70785 -19.64594 -10.74031 -10.62900
 Alpha  occ. eigenvalues --  -10.61983 -10.56517 -10.55715  -2.22707  -1.29988
 Alpha  occ. eigenvalues --   -1.17830  -1.16978  -0.92155  -0.84656  -0.76722
 Alpha  occ. eigenvalues --   -0.70240  -0.66851  -0.62629  -0.59822  -0.58205
 Alpha  occ. eigenvalues --   -0.53412  -0.51810  -0.51651  -0.49950  -0.46278
 Alpha  occ. eigenvalues --   -0.45400  -0.42639  -0.39096  -0.38460  -0.38125
 Alpha  occ. eigenvalues --   -0.33753
 Alpha virt. eigenvalues --   -0.01789   0.00166   0.00454   0.00524   0.01571
 Alpha virt. eigenvalues --    0.02184   0.03886   0.04551   0.04748   0.05081
 Alpha virt. eigenvalues --    0.05324   0.05527   0.06362   0.06519   0.07075

 Mulliken charges:
               1
     1  C   -0.361534
     2  C    0.034932
     3  C   -0.177134
     4  H    0.212515
     5  C   -0.201991
     6  O   -0.388614
     7  C    0.816368
     8  O   -0.566356
     9  O   -0.375100
    10  H    0.192998
    11  H    0.188575
    12  H    0.200558
    13  H    0.219006
    14  H    0.208949
    15  Li   0.996828
 Sum of Mulliken charges =   1.00000

 Dipole moment (field-independent basis, Debye):
    X=              8.7502    Y=             25.6387    Z=             -0.4054  Tot=             27.0937
 Quadrupole moment (field-independent basis, Debye-Ang):
   XX=            -55.3164   YY=             54.5485   ZZ=            -42.1979
   XY=              4.0625   XZ=             -0.5761   YZ=             -7.0317

  Exact polarizability: 111.677   0.560  73.324   8.605  -0.658  71.057
 Approx polarizability:  94.441   1.222  66.907   7.627   0.137  62.933

 ******    1 imaginary frequencies (negative Signs) ******

                      1                      2                      3
                      A                      A                      A
 Frequencies --    -38.7005                74.9185                95.6194
 Red. masses --      5.6230                 3.2629                 5.9740
 Frc consts  --      0.0050                 0.0108                 0.0322
 IR Inten    --     59.8544                12.2901                22.5588

                      4                      5                      6
                      A                      A                      A
 Frequencies --    116.7204               182.5328               214.7119
 Red. masses --      5.8246                 4.4380                 4.6826
 Frc consts  --      0.0468                 0.0871                 0.1272
 IR Inten    --     31.1849                48.9517                88.4106

                      7                      8                      9
                      A                      A                      A
 Frequencies --    294.2451               342.3515               436.7189
 Red. masses --      2.1564                 2.4776                 4.3296
 Frc consts  --      0.1100                 0.1711                 0.4865
 IR Inten    --      4.3452                 1.6400                 9.6869

                     10                     11                     12
                      A                      A                      A
 Frequencies --    542.2658               679.1024               709.7061
 Red. masses --      5.4049                 1.9844                 2.9044
 Frc consts  --      0.9364                 0.5392                 0.8619
 IR Inten    --      4.6496                15.8576                 1.2641

                     13                     14                     15
                      A                      A                      A
 Frequencies --    737.3818               792.9598               913.0926
 Red. masses --      7.0555                11.8773                 2.8572
 Frc consts  --      2.2603                 4.4002                 1.4035
 IR Inten    --     20.2924                43.4567                 5.2953

                     16                     17                     18
                      A                      A                      A
 Frequencies --    978.7435               992.7131               997.5709
 Red. masses --      3.3644                 1.4239                 1.3948
 Frc consts  --      1.8989                 0.8268                 0.8178
 IR Inten    --      5.2067                85.7302                35.4024

                     19                     20                     21
                      A                      A                      A
 Frequencies --   1029.5733              1087.3619              1108.8848
 Red. masses --      1.1660                 5.4108                 2.4142
 Frc consts  --      0.7282                 3.7693                 1.7491
 IR Inten    --     28.9095                49.3996                22.2282

                     22                     23                     24
                      A                      A                      A
 Frequencies --   1133.1845              1205.3959              1227.1984
 Red. masses --     10.8621                 1.9711                 2.4465
 Frc consts  --      8.2180                 1.6874                 2.1708
 IR Inten    --    436.4359                 8.1498               378.6285

                     25                     26                     27
                      A                      A                      A
 Frequencies --   1256.0266              1305.0342              1358.0006
 Red. masses --      1.2394                 1.2923                 1.2824
 Frc consts  --      1.1520                 1.2967                 1.3933
 IR Inten    --     20.5900                 1.1953                21.1590

                     28                     29                     30
                      A                      A                      A
 Frequencies --   1373.3994              1429.0474              1463.9388
 Red. masses --      1.5332                 1.5491                 1.3737
 Frc consts  --      1.7039                 1.8640                 1.7345
 IR Inten    --     88.1825                93.3536                20.5476

                     31                     32                     33
                      A                      A                      A
 Frequencies --   1517.4950              1746.3578              1890.6192
 Red. masses --      1.0954                 5.1140                12.7736
 Frc consts  --      1.4861                 9.1892                26.9011
 IR Inten    --     18.9398                 0.7963              1221.5531

                     34                     35                     36
                      A                      A                      A
 Frequencies --   3117.1969              3126.7579              3166.5249
 Red. masses --      1.0673                 1.0837                 1.0601
 Frc consts  --      6.1105                 6.2425                 6.2624
 IR Inten    --     16.5517                19.4434                 3.1162

                     37                     38                     39
                      A                      A                      A
 Frequencies --   3190.3958              3202.4348              3261.6719
 Red. masses --      1.0955                 1.1085                 1.1182
 Frc consts  --      6.5695                 6.6982                 7.0088
 IR Inten    --      3.2412                 7.4253                 4.0049

 - Thermochemistry -
 -------------------
 Temperature   298.150 Kelvin.  Pressure   1.00000 Atm.
 Atom     1 has atomic number  6 and mass  12.00000

 Molecular mass:   121.04770 amu.
 Principal axes and moments of inertia in atomic units:
                           1         2         3
     Eigenvalues --   894.741881360.338332160.01443
           X            0.99799  -0.06342   0.00113
           Y            0.06341   0.99798   0.00491
           Z           -0.00144  -0.00483   0.99999
 This molecule is an asymmetric top.
 Rotational symmetry number  1.
 Warning -- assumption of classical behavior for rotation
           may cause significant error
 Rotational temperatures (Kelvin)      0.09680     0.06367     0.04010
 Rotational constants (GHZ):           2.01705     1.32669     0.83552
    1 imaginary frequencies ignored.
 Zero-point vibrational energy     288885.3 (Joules/Mol)
                                   69.04525 (Kcal/Mol)
 Warning -- explicit consideration of   9 degrees of freedom as
           vibrations may cause significant error
 Vibrational temperatures:    107.79   137.57   167.93   262.62   308.92
          (Kelvin)            423.35   492.57   628.34   780.20   977.08
                             1021.11  1060.93  1140.89  1313.73  1408.19
                             1428.29  1435.28  1481.32  1564.47  1595.44
                             1630.40  1734.29  1765.66  1807.14  1877.65
                             1953.86  1976.01  2056.08  2106.28  2183.33
                             2512.62  2720.18  4484.95  4498.70  4555.92
                             4590.26  4607.58  4692.81

 Zero-point correction=                           0.110031 (Hartree/Particle)
 Thermal correction to Energy=                    0.118260
 Thermal correction to Enthalpy=                  0.119204
 Thermal correction to Gibbs Free Energy=         0.076096
 Sum of electronic and zero-point Energies=           -426.974886
 Sum of electronic and thermal Energies=              -426.966656
 Sum of electronic and thermal Enthalpies=            -426.965712
 Sum of electronic and thermal Free Energies=         -427.008820

                     E (Thermal)             CV                S
                      KCal/Mol        Cal/Mol-Kelvin    Cal/Mol-Kelvin
 Total                   74.209             28.477             90.729
 Electronic               0.000              0.000              0.000
 Translational            0.889              2.981             40.287
 Rotational               0.889              2.981             29.354
 Vibrational             72.432             22.515             21.087
 Vibration     1          0.599              1.966              4.020
 Vibration     2          0.603              1.952              3.542
 Vibration     3          0.608              1.935              3.154
 Vibration     4          0.630              1.864              2.302
 Vibration     5          0.645              1.819              2.003
 Vibration     6          0.689              1.684              1.449
 Vibration     7          0.721              1.591              1.201
 Vibration     8          0.797              1.390              0.837
 Vibration     9          0.897              1.157              0.560

 Normal termination of Gaussian 09 at Mon May 16 17:53:23 2022.
