 Gaussian 09, Revision D.01,
 Gaussian 09:  EM64L-G09RevD.01 24-Apr-2013

 ----------------------------------------------------------------------
 #P M062X/6-31+G** EmpiricalDispersion=GD3 SCRF(SMD,solvent=DiMethylSul
 foxide) Opt Freq
 ----------------------------------------------------------------------

 --------
 872-36-6
 --------
 Symbolic Z-matrix:
 Charge =  0 Multiplicity = 1

 SCF Done:  E(RM062X) =  -341.060059398     A.U. after   12 cycles
 SCF Done:  E(RM062X) =  -341.064908195     A.U. after   11 cycles
 SCF Done:  E(RM062X) =  -341.065606410     A.U. after   10 cycles
 SCF Done:  E(RM062X) =  -341.065327605     A.U. after   10 cycles
 SCF Done:  E(RM062X) =  -341.065706323     A.U. after    7 cycles
 SCF Done:  E(RM062X) =  -341.065730903     A.U. after    9 cycles
 SCF Done:  E(RM062X) =  -341.065731895     A.U. after    8 cycles
 Optimization completed.
    -- Stationary point found.
 Normal termination of Gaussian 09 at Mon May 16 16:22:52 2022.

 ----------------------------------------------------------------------
 #P Geom=AllCheck Guess=TCheck SCRF=Check GenChk RM062X/6-31+G(d,p) Fre
 q
 ----------------------------------------------------------------------

 Structure from the checkpoint file:  "/gpfs/data/yqi27/cgu13/CHEM1560Q/Gaussian/872-36-6/inp0/Gau-213050.chk"
 --------
 872-36-6
 --------
 Charge =  0 Multiplicity = 1

                         Standard orientation:
 ---------------------------------------------------------------------
 Center     Atomic      Atomic             Coordinates (Angstroms)
 Number     Number       Type             X           Y           Z
 ---------------------------------------------------------------------
      1          8           0        1.972454    0.000000    0.000073
      2          6           0        0.773842    0.000000   -0.000173
      3          8           0       -0.014883    1.096366    0.000193
      4          6           0       -1.330746    0.663974   -0.000229
      5          6           0       -1.330746   -0.663974    0.000241
      6          8           0       -0.014883   -1.096366   -0.000161
      7          1           0       -2.107805    1.411684   -0.000376
      8          1           0       -2.107805   -1.411684    0.000497
 ---------------------------------------------------------------------

 SCF Done:  E(RM062X) =  -341.065731895     A.U. after    1 cycles

 The electronic state is 1-A.
 Alpha  occ. eigenvalues --  -19.73743 -19.73740 -19.65351 -10.75057 -10.62688
 Alpha  occ. eigenvalues --  -10.62572  -1.33078  -1.20554  -1.18493  -0.88948
 Alpha  occ. eigenvalues --   -0.76587  -0.73509  -0.63278  -0.61827  -0.56502
 Alpha  occ. eigenvalues --   -0.54429  -0.49928  -0.49181  -0.48122  -0.45144
 Alpha  occ. eigenvalues --   -0.39655  -0.31038
 Alpha virt. eigenvalues --    0.01466   0.03733   0.03836   0.03837   0.04970
 Alpha virt. eigenvalues --    0.06595   0.06878   0.07295   0.08581   0.09814
 Alpha virt. eigenvalues --    0.11331   0.11913   0.15064   0.16761   0.17676

 Mulliken charges:
               1
     1  O   -0.566567
     2  C    0.793035
     3  O   -0.371933
     4  C    0.000687
     5  C    0.000687
     6  O   -0.371933
     7  H    0.258012
     8  H    0.258012
 Sum of Mulliken charges =   0.00000

 Dipole moment (field-independent basis, Debye):
    X=             -6.4036    Y=              0.0000    Z=             -0.0005  Tot=              6.4036
 Quadrupole moment (field-independent basis, Debye-Ang):
   XX=            -33.5551   YY=            -32.6318   ZZ=            -33.4975
   XY=              0.0000   XZ=             -0.0010   YZ=             -0.0025

  Exact polarizability:  63.886   0.000  52.877   0.001  -0.006  30.996
 Approx polarizability:  58.322   0.000  55.115   0.001  -0.006  30.716

                      1                      2                      3
                      A                      A                      A
 Frequencies --    242.9420               542.4553               569.7964
 Red. masses --      6.8331                 8.8684                 3.8264
 Frc consts  --      0.2376                 1.5375                 0.7320
 IR Inten    --      1.3891                 0.0544                 0.0000

                      4                      5                      6
                      A                      A                      A
 Frequencies --    730.6297               762.0336               799.0798
 Red. masses --      1.3658                11.9845                 5.9272
 Frc consts  --      0.4296                 4.1003                 2.2299
 IR Inten    --    165.6229                14.0313                 4.2187

                      7                      8                      9
                      A                      A                      A
 Frequencies --    855.4454               918.5205               962.5302
 Red. masses --      1.3519                 8.1155                 5.0395
 Frc consts  --      0.5829                 4.0341                 2.7508
 IR Inten    --      0.0000                10.8709                19.1081

                     10                     11                     12
                      A                      A                      A
 Frequencies --   1108.6127              1134.3395              1161.5000
 Red. masses --      4.0606                 1.9793                 2.7572
 Frc consts  --      2.9404                 1.5006                 2.1916
 IR Inten    --     25.2717                27.6423               156.6054

                     13                     14                     15
                      A                      A                      A
 Frequencies --   1210.8256              1397.5886              1710.0702
 Red. masses --      2.5546                 2.3401                 5.5809
 Frc consts  --      2.2066                 2.6931                 9.6157
 IR Inten    --    284.6441                80.6537                 0.6934

                     16                     17                     18
                      A                      A                      A
 Frequencies --   1913.9175              3306.2397              3330.1818
 Red. masses --     12.8979                 1.0928                 1.1189
 Frc consts  --     27.8366                 7.0382                 7.3110
 IR Inten    --   1193.6046                60.7856                18.7820

 - Thermochemistry -
 -------------------
 Temperature   298.150 Kelvin.  Pressure   1.00000 Atm.
 Atom     1 has atomic number  8 and mass  15.99491

 Molecular mass:    86.00039 amu.
 Principal axes and moments of inertia in atomic units:
                           1         2         3
     Eigenvalues --   189.44472 430.94357 620.38827
           X            1.00000   0.00000   0.00000
           Y            0.00000   1.00000  -0.00002
           Z            0.00000   0.00002   1.00000
 This molecule is an asymmetric top.
 Rotational symmetry number  1.
 Rotational temperatures (Kelvin)      0.45720     0.20099     0.13961
 Rotational constants (GHZ):           9.52648     4.18788     2.90905
 Zero-point vibrational energy     135517.2 (Joules/Mol)
                                   32.38939 (Kcal/Mol)
 Warning -- explicit consideration of   3 degrees of freedom as
           vibrations may cause significant error
 Vibrational temperatures:    349.54   780.47   819.81  1051.21  1096.39
          (Kelvin)           1149.70  1230.79  1321.54  1384.86  1595.04
                             1632.06  1671.14  1742.11  2010.82  2460.41
                             2753.70  4756.94  4791.38

 Zero-point correction=                           0.051616 (Hartree/Particle)
 Thermal correction to Energy=                    0.055835
 Thermal correction to Enthalpy=                  0.056779
 Thermal correction to Gibbs Free Energy=         0.024044
 Sum of electronic and zero-point Energies=           -341.014116
 Sum of electronic and thermal Energies=              -341.009897
 Sum of electronic and thermal Enthalpies=            -341.008953
 Sum of electronic and thermal Free Energies=         -341.041688

                     E (Thermal)             CV                S
                      KCal/Mol        Cal/Mol-Kelvin    Cal/Mol-Kelvin
 Total                   35.037             14.700             68.897
 Electronic               0.000              0.000              0.000
 Translational            0.889              2.981             39.268
 Rotational               0.889              2.981             25.430
 Vibrational             33.260              8.738              4.199
 Vibration     1          0.659              1.774              1.781
 Vibration     2          0.898              1.156              0.560
 Vibration     3          0.926              1.097              0.505

 Optimization completed.
    -- Stationary point found.
 Normal termination of Gaussian 09 at Mon May 16 16:23:30 2022.
