 Gaussian 09, Revision D.01,
 Gaussian 09:  EM64L-G09RevD.01 24-Apr-2013

 ----------------------------------------------------------------------
 #P M062X/6-31+G** EmpiricalDispersion=GD3 SCRF(SMD,solvent=DiMethylSul
 foxide) Opt Freq
 ----------------------------------------------------------------------

 --------
 872-36-6
 --------
 Symbolic Z-matrix:
 Charge =  1 Multiplicity = 1

 SCF Done:  E(RM062X) =  -348.480779183     A.U. after   12 cycles
 SCF Done:  E(RM062X) =  -348.484297997     A.U. after   11 cycles
 SCF Done:  E(RM062X) =  -348.486004851     A.U. after   11 cycles
 SCF Done:  E(RM062X) =  -348.485723383     A.U. after   11 cycles
 SCF Done:  E(RM062X) =  -348.486330517     A.U. after    8 cycles
 SCF Done:  E(RM062X) =  -348.486624474     A.U. after   10 cycles
 SCF Done:  E(RM062X) =  -348.486676447     A.U. after   10 cycles
 SCF Done:  E(RM062X) =  -348.486686023     A.U. after    8 cycles
 SCF Done:  E(RM062X) =  -348.486711567     A.U. after    9 cycles
 SCF Done:  E(RM062X) =  -348.478095497     A.U. after   11 cycles
 SCF Done:  E(RM062X) =  -348.486885181     A.U. after    7 cycles
 SCF Done:  E(RM062X) =  -348.447868750     A.U. after   13 cycles
 SCF Done:  E(RM062X) =  -348.486885907     A.U. after    6 cycles
 SCF Done:  E(RM062X) =  -348.486901507     A.U. after    9 cycles
 SCF Done:  E(RM062X) =  -348.486962827     A.U. after    9 cycles
 SCF Done:  E(RM062X) =  -348.486978413     A.U. after    9 cycles
 SCF Done:  E(RM062X) =  -348.486984113     A.U. after    9 cycles
 SCF Done:  E(RM062X) =  -348.486992378     A.U. after    8 cycles
 SCF Done:  E(RM062X) =  -348.486992493     A.U. after    5 cycles
 Optimization completed.
    -- Stationary point found.
 Normal termination of Gaussian 09 at Mon May 16 16:32:34 2022.

 ----------------------------------------------------------------------
 #P Geom=AllCheck Guess=TCheck SCRF=Check GenChk RM062X/6-31+G(d,p) Fre
 q
 ----------------------------------------------------------------------

 Structure from the checkpoint file:  "/gpfs/data/yqi27/cgu13/CHEM1560Q/Gaussian/872-36-6/inp1/Gau-214182.chk"
 --------
 872-36-6
 --------
 Charge =  1 Multiplicity = 1

                         Standard orientation:
 ---------------------------------------------------------------------
 Center     Atomic      Atomic             Coordinates (Angstroms)
 Number     Number       Type             X           Y           Z
 ---------------------------------------------------------------------
      1          8           0        2.285254    0.000002   -0.000017
      2          6           0        1.087043    0.000000   -0.000009
      3          8           0        0.297950    1.096506   -0.000003
      4          6           0       -1.017389    0.664128    0.000042
      5          6           0       -1.017388   -0.664130    0.000008
      6          8           0        0.297952   -1.096507   -0.000001
      7          1           0       -1.793500    1.413371    0.000013
      8          1           0       -1.793497   -1.413375    0.000096
      9          3           0       -4.591946    0.000002   -0.000064
 ---------------------------------------------------------------------

 SCF Done:  E(RM062X) =  -348.486992493     A.U. after    1 cycles

 The electronic state is 1-A.
 Alpha  occ. eigenvalues --  -19.74010 -19.74007 -19.65584 -10.75297 -10.63054
 Alpha  occ. eigenvalues --  -10.62938  -2.22744  -1.33346  -1.20829  -1.18748
 Alpha  occ. eigenvalues --   -0.89263  -0.76884  -0.73803  -0.63593  -0.62085
 Alpha  occ. eigenvalues --   -0.56846  -0.54672  -0.50251  -0.49445  -0.48393
 Alpha  occ. eigenvalues --   -0.45406  -0.39887  -0.31337
 Alpha virt. eigenvalues --   -0.01872  -0.00161   0.00523   0.00565   0.01762
 Alpha virt. eigenvalues --    0.03496   0.03977   0.04742   0.05221   0.05285
 Alpha virt. eigenvalues --    0.05623   0.05682   0.06563   0.06886   0.08225

 Mulliken charges:
               1
     1  O   -0.560496
     2  C    0.835683
     3  O   -0.363329
     4  C   -0.028446
     5  C   -0.028447
     6  O   -0.363329
     7  H    0.255636
     8  H    0.255636
     9  Li   0.997091
 Sum of Mulliken charges =   1.00000

 Dipole moment (field-independent basis, Debye):
    X=            -28.3560    Y=              0.0000    Z=             -0.0002  Tot=             28.3560
 Quadrupole moment (field-independent basis, Debye-Ang):
   XX=             63.2110   YY=            -33.0050   ZZ=            -33.9028
   XY=             -0.0001   XZ=              0.0013   YZ=             -0.0002

  Exact polarizability:  64.556   0.000  53.030  -0.001   0.001  31.327
 Approx polarizability:  58.849   0.000  55.276   0.000   0.001  30.966

                      1                      2                      3
                      A                      A                      A
 Frequencies --     59.0357                87.7728               243.0730
 Red. masses --      6.8139                 6.4529                 6.6016
 Frc consts  --      0.0140                 0.0293                 0.2298
 IR Inten    --     21.3049                34.9440                 1.0300

                      4                      5                      6
                      A                      A                      A
 Frequencies --    255.9465               541.9130               571.1232
 Red. masses --      7.1993                 8.6415                 3.9051
 Frc consts  --      0.2779                 1.4952                 0.7505
 IR Inten    --    146.6754                 0.0344                 0.0000

                      7                      8                      9
                      A                      A                      A
 Frequencies --    729.3011               764.8026               798.3186
 Red. masses --      1.3610                11.8403                 5.9533
 Frc consts  --      0.4265                 4.0805                 2.2354
 IR Inten    --    163.4387                 9.5915                 4.6830

                     10                     11                     12
                      A                      A                      A
 Frequencies --    852.9386               919.7580               959.1768
 Red. masses --      1.3426                 8.1546                 4.5064
 Frc consts  --      0.5755                 4.0644                 2.4427
 IR Inten    --      0.0000                11.0517                20.6256

                     13                     14                     15
                      A                      A                      A
 Frequencies --   1108.8702              1126.9126              1155.4474
 Red. masses --      3.2551                 1.7704                 3.1219
 Frc consts  --      2.3582                 1.3246                 2.4556
 IR Inten    --     38.1087                 7.8841               138.0608

                     16                     17                     18
                      A                      A                      A
 Frequencies --   1209.3993              1392.8608              1709.9822
 Red. masses --      3.2231                 2.4885                 5.6683
 Frc consts  --      2.7776                 2.8445                 9.7653
 IR Inten    --    297.0285                86.3329                 0.9613

                     19                     20                     21
                      A                      A                      A
 Frequencies --   1915.7116              3299.4487              3323.8913
 Red. masses --     12.9019                 1.0929                 1.1192
 Frc consts  --     27.8974                 7.0098                 7.2853
 IR Inten    --   1193.6804                60.8304                15.5692

 - Thermochemistry -
 -------------------
 Temperature   298.150 Kelvin.  Pressure   1.00000 Atm.
 Atom     1 has atomic number  8 and mass  15.99491

 Molecular mass:    93.01640 amu.
 Principal axes and moments of inertia in atomic units:
                           1         2         3
     Eigenvalues --   189.53193 999.193691188.72563
           X            1.00000   0.00000   0.00000
           Y            0.00000   1.00000   0.00000
           Z            0.00000   0.00000   1.00000
 This molecule is an asymmetric top.
 Rotational symmetry number  1.
 Rotational temperatures (Kelvin)      0.45699     0.08668     0.07286
 Rotational constants (GHZ):           9.52210     1.80620     1.51822
 Zero-point vibrational energy     137724.2 (Joules/Mol)
                                   32.91687 (Kcal/Mol)
 Warning -- explicit consideration of   6 degrees of freedom as
           vibrations may cause significant error
 Vibrational temperatures:     84.94   126.29   349.73   368.25   779.69
          (Kelvin)            821.72  1049.30  1100.38  1148.60  1227.19
                             1323.32  1380.04  1595.41  1621.37  1662.43
                             1740.05  2004.01  2460.28  2756.28  4747.16
                             4782.33

 Zero-point correction=                           0.052456 (Hartree/Particle)
 Thermal correction to Energy=                    0.058730
 Thermal correction to Enthalpy=                  0.059674
 Thermal correction to Gibbs Free Energy=         0.021424
 Sum of electronic and zero-point Energies=           -348.434536
 Sum of electronic and thermal Energies=              -348.428263
 Sum of electronic and thermal Enthalpies=            -348.427319
 Sum of electronic and thermal Free Energies=         -348.465569

                     E (Thermal)             CV                S
                      KCal/Mol        Cal/Mol-Kelvin    Cal/Mol-Kelvin
 Total                   36.853             20.400             80.504
 Electronic               0.000              0.000              0.000
 Translational            0.889              2.981             39.502
 Rotational               0.889              2.981             26.912
 Vibrational             35.076             14.438             14.089
 Vibration     1          0.596              1.974              4.489
 Vibration     2          0.601              1.958              3.709
 Vibration     3          0.659              1.774              1.780
 Vibration     4          0.666              1.753              1.689
 Vibration     5          0.897              1.157              0.561
 Vibration     6          0.927              1.094              0.502

 Optimization completed.
    -- Stationary point found.
 Normal termination of Gaussian 09 at Mon May 16 16:33:28 2022.
