 Gaussian 09, Revision D.01,
 Gaussian 09:  EM64L-G09RevD.01 24-Apr-2013

 ----------------------------------------------------------------------
 #P M062X/6-31+G** EmpiricalDispersion=GD3 SCRF(SMD,solvent=DiMethylSul
 foxide) Opt Freq
 ----------------------------------------------------------------------

 ---------
 4427-96-7
 ---------
 Symbolic Z-matrix:
 Charge =  0 Multiplicity = 1

 SCF Done:  E(RM062X) =  -419.657855404     A.U. after   13 cycles
 SCF Done:  E(RM062X) =  -419.661982301     A.U. after   12 cycles
 SCF Done:  E(RM062X) =  -419.662095546     A.U. after   11 cycles
 SCF Done:  E(RM062X) =  -419.662101382     A.U. after   11 cycles
 SCF Done:  E(RM062X) =  -419.662236166     A.U. after   11 cycles
 SCF Done:  E(RM062X) =  -419.662339388     A.U. after   11 cycles
 SCF Done:  E(RM062X) =  -419.662287043     A.U. after   11 cycles
 SCF Done:  E(RM062X) =  -419.660671585     A.U. after   14 cycles
 SCF Done:  E(RM062X) =  -419.662628529     A.U. after   11 cycles
 SCF Done:  E(RM062X) =  -419.662857942     A.U. after   11 cycles
 SCF Done:  E(RM062X) =  -419.663169147     A.U. after   11 cycles
 SCF Done:  E(RM062X) =  -419.663149204     A.U. after   11 cycles
 SCF Done:  E(RM062X) =  -419.663290323     A.U. after   11 cycles
 SCF Done:  E(RM062X) =  -419.663294019     A.U. after    9 cycles
 SCF Done:  E(RM062X) =  -419.663294840     A.U. after    9 cycles
 SCF Done:  E(RM062X) =  -419.663294889     A.U. after    7 cycles
 Optimization completed.
    -- Stationary point found.
 Normal termination of Gaussian 09 at Mon May 16 16:25:15 2022.

 ----------------------------------------------------------------------
 #P Geom=AllCheck Guess=TCheck SCRF=Check GenChk RM062X/6-31+G(d,p) Fre
 q
 ----------------------------------------------------------------------

 Structure from the checkpoint file:  "/gpfs/data/yqi27/cgu13/CHEM1560Q/Gaussian/4427-96-7/inp0/Gau-76992.chk"
 ---------
 4427-96-7
 ---------
 Charge =  0 Multiplicity = 1

                         Standard orientation:
 ---------------------------------------------------------------------
 Center     Atomic      Atomic             Coordinates (Angstroms)
 Number     Number       Type             X           Y           Z
 ---------------------------------------------------------------------
      1          6           0        3.103770   -0.369795    0.135883
      2          6           0        1.915427   -0.211371   -0.443068
      3          6           0        0.676911    0.087684    0.333438
      4          1           0        0.868806    0.064282    1.410593
      5          6           0       -0.036427    1.375549   -0.082831
      6          8           0       -1.427040    1.025327    0.043283
      7          6           0       -1.545815   -0.310358    0.001896
      8          8           0       -2.592003   -0.896472   -0.064327
      9          8           0       -0.344013   -0.905765    0.049856
     10          1           0        3.996768   -0.556553   -0.453168
     11          1           0        3.217574   -0.312829    1.216355
     12          1           0        1.798739   -0.265949   -1.525055
     13          1           0        0.177220    2.216732    0.574536
     14          1           0        0.162139    1.639342   -1.125663
 ---------------------------------------------------------------------

 SCF Done:  E(RM062X) =  -419.663294889     A.U. after    1 cycles

 The electronic state is 1-A.
 Alpha  occ. eigenvalues --  -19.70638 -19.70559 -19.64375 -10.73797 -10.62635
 Alpha  occ. eigenvalues --  -10.61580 -10.56308 -10.55522  -1.29740  -1.17556
 Alpha  occ. eigenvalues --   -1.16737  -0.91911  -0.84407  -0.76439  -0.69963
 Alpha  occ. eigenvalues --   -0.66621  -0.62395  -0.59555  -0.57938  -0.53171
 Alpha  occ. eigenvalues --   -0.51514  -0.51423  -0.49704  -0.46021  -0.45126
 Alpha  occ. eigenvalues --   -0.42413  -0.38875  -0.38225  -0.37855  -0.33558
 Alpha virt. eigenvalues --    0.01312   0.02423   0.03436   0.03857   0.04295
 Alpha virt. eigenvalues --    0.05677   0.06613   0.06996   0.07180   0.07659
 Alpha virt. eigenvalues --    0.08477   0.09355   0.10679   0.11423   0.12016

 Mulliken charges:
               1
     1  C   -0.338689
     2  C    0.002547
     3  C   -0.164632
     4  H    0.211544
     5  C   -0.183680
     6  O   -0.402177
     7  C    0.816901
     8  O   -0.572003
     9  O   -0.383688
    10  H    0.192396
    11  H    0.188561
    12  H    0.200808
    13  H    0.221717
    14  H    0.210395
 Sum of Mulliken charges =   0.00000

 Dipole moment (field-independent basis, Debye):
    X=              6.8055    Y=              3.5706    Z=              0.4332  Tot=              7.6975
 Quadrupole moment (field-independent basis, Debye-Ang):
   XX=            -55.2594   YY=            -49.4024   ZZ=            -42.0874
   XY=             -3.0947   XZ=              0.2757   YZ=             -0.0395

  Exact polarizability: 111.310   2.698  72.399   8.322  -0.746  70.985
 Approx polarizability:  94.021   2.879  66.501   7.221  -0.153  62.719

                      1                      2                      3
                      A                      A                      A
 Frequencies --     93.0456               106.5982               195.6047
 Red. masses --      3.2062                 5.5748                 3.7768
 Frc consts  --      0.0164                 0.0373                 0.0851
 IR Inten    --      1.0136                 2.6317                 2.2104

                      4                      5                      6
                      A                      A                      A
 Frequencies --    291.5399               340.9882               434.5553
 Red. masses --      2.0686                 2.5233                 4.4116
 Frc consts  --      0.1036                 0.1729                 0.4908
 IR Inten    --      4.3306                 1.7613                 9.0807

                      7                      8                      9
                      A                      A                      A
 Frequencies --    541.7571               677.6334               709.0111
 Red. masses --      5.4481                 2.0078                 2.7980
 Frc consts  --      0.9421                 0.5432                 0.8287
 IR Inten    --      4.5455                17.4329                 1.1613

                     10                     11                     12
                      A                      A                      A
 Frequencies --    737.9891               789.9859               907.8449
 Red. masses --      6.8585                11.9614                 2.9099
 Frc consts  --      2.2008                 4.3982                 1.4130
 IR Inten    --     23.3517                44.1102                 9.1857

                     13                     14                     15
                      A                      A                      A
 Frequencies --    978.9887               987.5452               997.4921
 Red. masses --      2.8686                 1.6394                 1.2828
 Frc consts  --      1.6199                 0.9420                 0.7520
 IR Inten    --      8.1007                16.1391               102.3831

                     16                     17                     18
                      A                      A                      A
 Frequencies --   1033.1836              1083.4516              1105.0511
 Red. masses --      1.1770                 5.6064                 2.4473
 Frc consts  --      0.7403                 3.8775                 1.7608
 IR Inten    --     24.9555                47.8609                20.9369

                     19                     20                     21
                      A                      A                      A
 Frequencies --   1132.8055              1203.2432              1227.9757
 Red. masses --     10.8348                 2.0258                 2.4887
 Frc consts  --      8.1918                 1.7280                 2.2110
 IR Inten    --    440.2611                 7.3231               383.0214

                     22                     23                     24
                      A                      A                      A
 Frequencies --   1259.9504              1306.9757              1355.3930
 Red. masses --      1.2385                 1.2789                 1.2925
 Frc consts  --      1.1584                 1.2872                 1.3990
 IR Inten    --     23.2729                 1.2240                21.7087

                     25                     26                     27
                      A                      A                      A
 Frequencies --   1376.0647              1433.7712              1465.3556
 Red. masses --      1.5345                 1.4971                 1.3856
 Frc consts  --      1.7119                 1.8133                 1.7529
 IR Inten    --     93.4530                81.3381                18.5692

                     28                     29                     30
                      A                      A                      A
 Frequencies --   1510.5764              1749.6631              1891.4513
 Red. masses --      1.1007                 5.1302                12.7707
 Frc consts  --      1.4799                 9.2533                26.9187
 IR Inten    --     21.9441                 0.9095              1223.0793

                     31                     32                     33
                      A                      A                      A
 Frequencies --   3121.6001              3127.8512              3169.1599
 Red. masses --      1.0801                 1.0700                 1.0602
 Frc consts  --      6.2011                 6.1677                 6.2740
 IR Inten    --      7.0755                26.9002                 3.5173

                     34                     35                     36
                      A                      A                      A
 Frequencies --   3190.9530              3209.1788              3264.7206
 Red. masses --      1.0954                 1.1092                 1.1179
 Frc consts  --      6.5714                 6.7305                 7.0202
 IR Inten    --      3.5625                 5.8616                 4.2823

 - Thermochemistry -
 -------------------
 Temperature   298.150 Kelvin.  Pressure   1.00000 Atm.
 Atom     1 has atomic number  6 and mass  12.00000

 Molecular mass:   114.03169 amu.
 Principal axes and moments of inertia in atomic units:
                           1         2         3
     Eigenvalues --   316.981351347.253901580.06244
           X            0.99995  -0.00942   0.00146
           Y            0.00943   0.99995  -0.00312
           Z           -0.00143   0.00313   0.99999
 This molecule is an asymmetric top.
 Rotational symmetry number  1.
 Rotational temperatures (Kelvin)      0.27325     0.06429     0.05482
 Rotational constants (GHZ):           5.69352     1.33957     1.14220
 Zero-point vibrational energy     287157.3 (Joules/Mol)
                                   68.63225 (Kcal/Mol)
 Warning -- explicit consideration of   7 degrees of freedom as
           vibrations may cause significant error
 Vibrational temperatures:    133.87   153.37   281.43   419.46   490.61
          (Kelvin)            625.23   779.47   974.96  1020.11  1061.80
                             1136.61  1306.18  1408.54  1420.86  1435.17
                             1486.52  1558.84  1589.92  1629.85  1731.20
                             1766.78  1812.79  1880.44  1950.11  1979.85
                             2062.87  2108.32  2173.38  2517.37  2721.37
                             4491.28  4500.27  4559.71  4591.06  4617.29
                             4697.20

 Zero-point correction=                           0.109372 (Hartree/Particle)
 Thermal correction to Energy=                    0.116294
 Thermal correction to Enthalpy=                  0.117238
 Thermal correction to Gibbs Free Energy=         0.077651
 Sum of electronic and zero-point Energies=           -419.553922
 Sum of electronic and thermal Energies=              -419.547001
 Sum of electronic and thermal Enthalpies=            -419.546057
 Sum of electronic and thermal Free Energies=         -419.585644

                     E (Thermal)             CV                S
                      KCal/Mol        Cal/Mol-Kelvin    Cal/Mol-Kelvin
 Total                   72.975             24.720             83.317
 Electronic               0.000              0.000              0.000
 Translational            0.889              2.981             40.109
 Rotational               0.889              2.981             28.003
 Vibrational             71.198             18.758             15.205
 Vibration     1          0.602              1.954              3.595
 Vibration     2          0.605              1.944              3.330
 Vibration     3          0.636              1.846              2.174
 Vibration     4          0.687              1.689              1.465
 Vibration     5          0.721              1.594              1.208
 Vibration     6          0.795              1.395              0.844
 Vibration     7          0.897              1.158              0.562

 Optimization completed.
    -- Stationary point found.
 Normal termination of Gaussian 09 at Mon May 16 16:26:35 2022.
